/usr/local/Chem-Apps/rung09_d01
 Entering Gaussian System, Link 0=/usr/local/Chem-Apps/Gaussian/g09_d01/g09
 Initial command:
 /usr/local/Chem-Apps/Gaussian/g09_d01/l1.exe "/scratch/an10/LSF_82212/Gau-242976.inp" -scrdir="/scratch/an10/LSF_82212/"
 Entering Link 1 = /usr/local/Chem-Apps/Gaussian/g09_d01/l1.exe PID=    242977.
  
 Copyright (c) 1988,1990,1992,1993,1995,1998,2003,2009,2013,
            Gaussian, Inc.  All Rights Reserved.
  
 This is part of the Gaussian(R) 09 program.  It is based on
 the Gaussian(R) 03 system (copyright 2003, Gaussian, Inc.),
 the Gaussian(R) 98 system (copyright 1998, Gaussian, Inc.),
 the Gaussian(R) 94 system (copyright 1995, Gaussian, Inc.),
 the Gaussian 92(TM) system (copyright 1992, Gaussian, Inc.),
 the Gaussian 90(TM) system (copyright 1990, Gaussian, Inc.),
 the Gaussian 88(TM) system (copyright 1988, Gaussian, Inc.),
 the Gaussian 86(TM) system (copyright 1986, Carnegie Mellon
 University), and the Gaussian 82(TM) system (copyright 1983,
 Carnegie Mellon University). Gaussian is a federally registered
 trademark of Gaussian, Inc.
  
 This software contains proprietary and confidential information,
 including trade secrets, belonging to Gaussian, Inc.
  
 This software is provided under written license and may be
 used, copied, transmitted, or stored only in accord with that
 written license.
  
 The following legend is applicable only to US Government
 contracts under FAR:
  
                    RESTRICTED RIGHTS LEGEND
  
 Use, reproduction and disclosure by the US Government is
 subject to restrictions as set forth in subparagraphs (a)
 and (c) of the Commercial Computer Software - Restricted
 Rights clause in FAR 52.227-19.
  
 Gaussian, Inc.
 340 Quinnipiac St., Bldg. 40, Wallingford CT 06492
  
  
 ---------------------------------------------------------------
 Warning -- This program may not be used in any manner that
 competes with the business of Gaussian, Inc. or will provide
 assistance to any competitor of Gaussian, Inc.  The licensee
 of this program is prohibited from giving any competitor of
 Gaussian, Inc. access to this program.  By using this program,
 the user acknowledges that Gaussian, Inc. is engaged in the
 business of creating and licensing software in the field of
 computational chemistry and represents and warrants to the
 licensee that it is not a competitor of Gaussian, Inc. and that
 it will not use this program in any manner prohibited above.
 ---------------------------------------------------------------
  

 Cite this work as:
 Gaussian 09, Revision D.01,
 M. J. Frisch, G. W. Trucks, H. B. Schlegel, G. E. Scuseria, 
 M. A. Robb, J. R. Cheeseman, G. Scalmani, V. Barone, B. Mennucci, 
 G. A. Petersson, H. Nakatsuji, M. Caricato, X. Li, H. P. Hratchian, 
 A. F. Izmaylov, J. Bloino, G. Zheng, J. L. Sonnenberg, M. Hada, 
 M. Ehara, K. Toyota, R. Fukuda, J. Hasegawa, M. Ishida, T. Nakajima, 
 Y. Honda, O. Kitao, H. Nakai, T. Vreven, J. A. Montgomery, Jr., 
 J. E. Peralta, F. Ogliaro, M. Bearpark, J. J. Heyd, E. Brothers, 
 K. N. Kudin, V. N. Staroverov, T. Keith, R. Kobayashi, J. Normand, 
 K. Raghavachari, A. Rendell, J. C. Burant, S. S. Iyengar, J. Tomasi, 
 M. Cossi, N. Rega, J. M. Millam, M. Klene, J. E. Knox, J. B. Cross, 
 V. Bakken, C. Adamo, J. Jaramillo, R. Gomperts, R. E. Stratmann, 
 O. Yazyev, A. J. Austin, R. Cammi, C. Pomelli, J. W. Ochterski, 
 R. L. Martin, K. Morokuma, V. G. Zakrzewski, G. A. Voth, 
 P. Salvador, J. J. Dannenberg, S. Dapprich, A. D. Daniels, 
 O. Farkas, J. B. Foresman, J. V. Ortiz, J. Cioslowski, 
 and D. J. Fox, Gaussian, Inc., Wallingford CT, 2013.
 
 ******************************************
 Gaussian 09:  ES64L-G09RevD.01 24-Apr-2013
                 1-Feb-2016 
 ******************************************
 %mem=1GB
 %nprocshared=6
 Will use up to    6 processors via shared memory.
 %chk=diphenyl.chk
 Default route:  CacheSize=163840
 -----------------------------------------------------------------
 # opt=(calcfc,noraman) freq=noraman hf/6-31g(d) geom=connectivity
 -----------------------------------------------------------------
 1/4=163840,10=4,18=20,19=15,38=1,57=2/1,3;
 2/4=163840,9=110,12=2,17=6,18=5,40=1/2;
 3/4=163840,5=1,6=6,7=1,11=9,16=1,25=1,30=1,71=2,140=1/1,2,3;
 4/4=163840/1;
 5/4=163840,5=2,38=5/2;
 8/4=163840,6=4,10=90,11=11/1;
 11/4=163840,6=1,8=1,9=11,15=111,16=1/1,2,10;
 10/4=163840,6=1,13=1/2;
 6/4=163840,7=2,8=2,9=2,10=2,28=1/1;
 7/4=163840,10=1,18=20,25=1/1,2,3,16;
 1/4=163840,10=4,18=20,19=15/3(2);
 2/4=163840,9=110/2;
 99/4=163840/99;
 2/4=163840,9=110/2;
 3/4=163840,5=1,6=6,7=1,11=9,16=1,25=1,30=1,71=1/1,2,3;
 4/4=163840,5=5,16=3,69=1/1;
 5/4=163840,5=2,38=5/2;
 7/4=163840/1,2,3,16;
 1/4=163840,18=20,19=15/3(-5);
 2/4=163840,9=110/2;
 6/4=163840,7=2,8=2,9=2,10=2,19=2,28=1/1;
 99/4=163840,9=1/99;
 -------------------
 Title Card Required
 -------------------
 Symbolic Z-matrix:
 Charge =  0 Multiplicity = 1
 C                    -2.67784   0.16922  -0.05711 
 C                    -1.2804    0.27436  -0.05154 
 C                    -0.67285   1.53631  -0.00388 
 C                    -1.46274   2.69313   0.0382 
 C                    -2.86018   2.58799   0.03262 
 C                    -3.46773   1.32603  -0.01503 
 H                    -3.14172  -0.79432  -0.0935 
 H                    -0.6773   -0.6089   -0.08367 
 H                    -0.99887   3.65666   0.07459 
 H                    -3.46328   3.47124   0.06475 
 H                    -4.53471   1.24576  -0.01929 
 C                     1.65269   0.49504  -0.03982 
 C                     3.05012   0.60018  -0.03424 
 C                     3.65767   1.86213   0.01342 
 C                     2.86778   3.01895   0.0555 
 C                     1.47034   2.91381   0.04991 
 C                     0.86279   1.65185   0.00226 
 H                     1.18881  -0.4685   -0.07621 
 H                     3.65322  -0.28308  -0.06637 
 H                     4.72465   1.94241   0.01768 
 H                     3.33166   3.98248   0.09189 
 H                     0.86725   3.79706   0.08204 
 

 GradGradGradGradGradGradGradGradGradGradGradGradGradGradGradGradGradGrad
 Berny optimization.
 Initialization pass.
                           ----------------------------
                           !    Initial Parameters    !
                           ! (Angstroms and Degrees)  !
 --------------------------                            --------------------------
 ! Name  Definition              Value          Derivative Info.                !
 --------------------------------------------------------------------------------
 ! R1    R(1,2)                  1.4014         calculate D2E/DX2 analytically  !
 ! R2    R(1,6)                  1.4014         calculate D2E/DX2 analytically  !
 ! R3    R(1,7)                  1.07           calculate D2E/DX2 analytically  !
 ! R4    R(2,3)                  1.4014         calculate D2E/DX2 analytically  !
 ! R5    R(2,8)                  1.07           calculate D2E/DX2 analytically  !
 ! R6    R(3,4)                  1.4014         calculate D2E/DX2 analytically  !
 ! R7    R(3,17)                 1.54           calculate D2E/DX2 analytically  !
 ! R8    R(4,5)                  1.4014         calculate D2E/DX2 analytically  !
 ! R9    R(4,9)                  1.07           calculate D2E/DX2 analytically  !
 ! R10   R(5,6)                  1.4014         calculate D2E/DX2 analytically  !
 ! R11   R(5,10)                 1.07           calculate D2E/DX2 analytically  !
 ! R12   R(6,11)                 1.07           calculate D2E/DX2 analytically  !
 ! R13   R(12,13)                1.4014         calculate D2E/DX2 analytically  !
 ! R14   R(12,17)                1.4014         calculate D2E/DX2 analytically  !
 ! R15   R(12,18)                1.07           calculate D2E/DX2 analytically  !
 ! R16   R(13,14)                1.4014         calculate D2E/DX2 analytically  !
 ! R17   R(13,19)                1.07           calculate D2E/DX2 analytically  !
 ! R18   R(14,15)                1.4014         calculate D2E/DX2 analytically  !
 ! R19   R(14,20)                1.07           calculate D2E/DX2 analytically  !
 ! R20   R(15,16)                1.4014         calculate D2E/DX2 analytically  !
 ! R21   R(15,21)                1.07           calculate D2E/DX2 analytically  !
 ! R22   R(16,17)                1.4014         calculate D2E/DX2 analytically  !
 ! R23   R(16,22)                1.07           calculate D2E/DX2 analytically  !
 ! A1    A(2,1,6)              120.0            calculate D2E/DX2 analytically  !
 ! A2    A(2,1,7)              120.0            calculate D2E/DX2 analytically  !
 ! A3    A(6,1,7)              120.0            calculate D2E/DX2 analytically  !
 ! A4    A(1,2,3)              120.0            calculate D2E/DX2 analytically  !
 ! A5    A(1,2,8)              120.0            calculate D2E/DX2 analytically  !
 ! A6    A(3,2,8)              120.0            calculate D2E/DX2 analytically  !
 ! A7    A(2,3,4)              120.0            calculate D2E/DX2 analytically  !
 ! A8    A(2,3,17)             120.0            calculate D2E/DX2 analytically  !
 ! A9    A(4,3,17)             120.0            calculate D2E/DX2 analytically  !
 ! A10   A(3,4,5)              120.0            calculate D2E/DX2 analytically  !
 ! A11   A(3,4,9)              120.0            calculate D2E/DX2 analytically  !
 ! A12   A(5,4,9)              120.0            calculate D2E/DX2 analytically  !
 ! A13   A(4,5,6)              120.0            calculate D2E/DX2 analytically  !
 ! A14   A(4,5,10)             120.0            calculate D2E/DX2 analytically  !
 ! A15   A(6,5,10)             120.0            calculate D2E/DX2 analytically  !
 ! A16   A(1,6,5)              120.0            calculate D2E/DX2 analytically  !
 ! A17   A(1,6,11)             120.0            calculate D2E/DX2 analytically  !
 ! A18   A(5,6,11)             120.0            calculate D2E/DX2 analytically  !
 ! A19   A(13,12,17)           120.0            calculate D2E/DX2 analytically  !
 ! A20   A(13,12,18)           120.0            calculate D2E/DX2 analytically  !
 ! A21   A(17,12,18)           120.0            calculate D2E/DX2 analytically  !
 ! A22   A(12,13,14)           120.0            calculate D2E/DX2 analytically  !
 ! A23   A(12,13,19)           120.0            calculate D2E/DX2 analytically  !
 ! A24   A(14,13,19)           120.0            calculate D2E/DX2 analytically  !
 ! A25   A(13,14,15)           120.0            calculate D2E/DX2 analytically  !
 ! A26   A(13,14,20)           120.0            calculate D2E/DX2 analytically  !
 ! A27   A(15,14,20)           120.0            calculate D2E/DX2 analytically  !
 ! A28   A(14,15,16)           120.0            calculate D2E/DX2 analytically  !
 ! A29   A(14,15,21)           120.0            calculate D2E/DX2 analytically  !
 ! A30   A(16,15,21)           120.0            calculate D2E/DX2 analytically  !
 ! A31   A(15,16,17)           120.0            calculate D2E/DX2 analytically  !
 ! A32   A(15,16,22)           120.0            calculate D2E/DX2 analytically  !
 ! A33   A(17,16,22)           120.0            calculate D2E/DX2 analytically  !
 ! A34   A(3,17,12)            120.0            calculate D2E/DX2 analytically  !
 ! A35   A(3,17,16)            120.0            calculate D2E/DX2 analytically  !
 ! A36   A(12,17,16)           120.0            calculate D2E/DX2 analytically  !
 ! D1    D(6,1,2,3)              0.0            calculate D2E/DX2 analytically  !
 ! D2    D(6,1,2,8)            179.9999         calculate D2E/DX2 analytically  !
 ! D3    D(7,1,2,3)           -179.9999         calculate D2E/DX2 analytically  !
 ! D4    D(7,1,2,8)              0.0            calculate D2E/DX2 analytically  !
 ! D5    D(2,1,6,5)              0.0001         calculate D2E/DX2 analytically  !
 ! D6    D(2,1,6,11)          -180.0            calculate D2E/DX2 analytically  !
 ! D7    D(7,1,6,5)            180.0            calculate D2E/DX2 analytically  !
 ! D8    D(7,1,6,11)            -0.0001         calculate D2E/DX2 analytically  !
 ! D9    D(1,2,3,4)             -0.0001         calculate D2E/DX2 analytically  !
 ! D10   D(1,2,3,17)           179.9999         calculate D2E/DX2 analytically  !
 ! D11   D(8,2,3,4)            180.0            calculate D2E/DX2 analytically  !
 ! D12   D(8,2,3,17)            -0.0001         calculate D2E/DX2 analytically  !
 ! D13   D(2,3,4,5)              0.0001         calculate D2E/DX2 analytically  !
 ! D14   D(2,3,4,9)           -180.0            calculate D2E/DX2 analytically  !
 ! D15   D(17,3,4,5)          -179.9999         calculate D2E/DX2 analytically  !
 ! D16   D(17,3,4,9)             0.0001         calculate D2E/DX2 analytically  !
 ! D17   D(2,3,17,12)           -0.0001         calculate D2E/DX2 analytically  !
 ! D18   D(2,3,17,16)          179.9999         calculate D2E/DX2 analytically  !
 ! D19   D(4,3,17,12)          179.9999         calculate D2E/DX2 analytically  !
 ! D20   D(4,3,17,16)           -0.0001         calculate D2E/DX2 analytically  !
 ! D21   D(3,4,5,6)              0.0            calculate D2E/DX2 analytically  !
 ! D22   D(3,4,5,10)           180.0            calculate D2E/DX2 analytically  !
 ! D23   D(9,4,5,6)           -179.9999         calculate D2E/DX2 analytically  !
 ! D24   D(9,4,5,10)             0.0            calculate D2E/DX2 analytically  !
 ! D25   D(4,5,6,1)             -0.0001         calculate D2E/DX2 analytically  !
 ! D26   D(4,5,6,11)           180.0            calculate D2E/DX2 analytically  !
 ! D27   D(10,5,6,1)           179.9999         calculate D2E/DX2 analytically  !
 ! D28   D(10,5,6,11)            0.0            calculate D2E/DX2 analytically  !
 ! D29   D(17,12,13,14)          0.0            calculate D2E/DX2 analytically  !
 ! D30   D(17,12,13,19)        179.9999         calculate D2E/DX2 analytically  !
 ! D31   D(18,12,13,14)       -179.9999         calculate D2E/DX2 analytically  !
 ! D32   D(18,12,13,19)          0.0            calculate D2E/DX2 analytically  !
 ! D33   D(13,12,17,3)        -179.9999         calculate D2E/DX2 analytically  !
 ! D34   D(13,12,17,16)          0.0001         calculate D2E/DX2 analytically  !
 ! D35   D(18,12,17,3)           0.0            calculate D2E/DX2 analytically  !
 ! D36   D(18,12,17,16)       -180.0            calculate D2E/DX2 analytically  !
 ! D37   D(12,13,14,15)         -0.0001         calculate D2E/DX2 analytically  !
 ! D38   D(12,13,14,20)        180.0            calculate D2E/DX2 analytically  !
 ! D39   D(19,13,14,15)        180.0            calculate D2E/DX2 analytically  !
 ! D40   D(19,13,14,20)          0.0            calculate D2E/DX2 analytically  !
 ! D41   D(13,14,15,16)          0.0001         calculate D2E/DX2 analytically  !
 ! D42   D(13,14,15,21)        180.0            calculate D2E/DX2 analytically  !
 ! D43   D(20,14,15,16)        180.0            calculate D2E/DX2 analytically  !
 ! D44   D(20,14,15,21)         -0.0001         calculate D2E/DX2 analytically  !
 ! D45   D(14,15,16,17)          0.0001         calculate D2E/DX2 analytically  !
 ! D46   D(14,15,16,22)        180.0            calculate D2E/DX2 analytically  !
 ! D47   D(21,15,16,17)       -179.9998         calculate D2E/DX2 analytically  !
 ! D48   D(21,15,16,22)          0.0001         calculate D2E/DX2 analytically  !
 ! D49   D(15,16,17,3)         179.9999         calculate D2E/DX2 analytically  !
 ! D50   D(15,16,17,12)         -0.0001         calculate D2E/DX2 analytically  !
 ! D51   D(22,16,17,3)           0.0            calculate D2E/DX2 analytically  !
 ! D52   D(22,16,17,12)        179.9999         calculate D2E/DX2 analytically  !
 --------------------------------------------------------------------------------
 Trust Radius=3.00D-01 FncErr=1.00D-07 GrdErr=1.00D-07
 Number of steps in this run=    121 maximum allowed number of steps=    132.
 GradGradGradGradGradGradGradGradGradGradGradGradGradGradGradGradGradGrad

                          Input orientation:                          
 ---------------------------------------------------------------------
 Center     Atomic      Atomic             Coordinates (Angstroms)
 Number     Number       Type             X           Y           Z
 ---------------------------------------------------------------------
      1          6           0       -2.677841    0.169216   -0.057115
      2          6           0       -1.280401    0.274356   -0.051537
      3          6           0       -0.672853    1.536313   -0.003878
      4          6           0       -1.462743    2.693129    0.038202
      5          6           0       -2.860182    2.587989    0.032624
      6          6           0       -3.467731    1.326032   -0.015033
      7          1           0       -3.141718   -0.794316   -0.093502
      8          1           0       -0.677303   -0.608899   -0.083666
      9          1           0       -0.998866    3.656662    0.074590
     10          1           0       -3.463281    3.471244    0.064753
     11          1           0       -4.534707    1.245755   -0.019292
     12          6           0        1.652685    0.495035   -0.039822
     13          6           0        3.050125    0.600175   -0.034240
     14          6           0        3.657673    1.862132    0.013420
     15          6           0        2.867783    3.018949    0.055495
     16          6           0        1.470344    2.913808    0.049912
     17          6           0        0.862795    1.651852    0.002255
     18          1           0        1.188808   -0.468497   -0.076210
     19          1           0        3.653223   -0.283080   -0.066366
     20          1           0        4.724649    1.942409    0.017683
     21          1           0        3.331660    3.982481    0.091886
     22          1           0        0.867245    3.797064    0.082038
 ---------------------------------------------------------------------
                    Distance matrix (angstroms):
                    1          2          3          4          5
     1  C    0.000000
     2  C    1.401400   0.000000
     3  C    2.427296   1.401400   0.000000
     4  C    2.802800   2.427296   1.401400   0.000000
     5  C    2.427296   2.802800   2.427296   1.401400   0.000000
     6  C    1.401400   2.427296   2.802800   2.427296   1.401400
     7  H    1.070000   2.146700   3.396345   3.872800   3.396345
     8  H    2.146700   1.070000   2.146700   3.396345   3.872800
     9  H    3.872800   3.396345   2.146700   1.070000   2.146700
    10  H    3.396345   3.872800   3.396345   2.146700   1.070000
    11  H    2.146700   3.396345   3.872800   3.396345   2.146700
    12  C    4.342800   2.941400   2.548270   3.813607   4.975106
    13  C    5.744200   4.342800   3.838989   4.975106   6.235992
    14  C    6.558176   5.187469   4.342800   5.187469   6.558176
    15  C    6.235992   4.975106   3.838989   4.342800   5.744200
    16  C    4.975106   3.813607   2.548270   2.941400   4.342800
    17  C    3.838989   2.548270   1.540000   2.548270   3.838989
    18  H    3.918930   2.578650   2.736837   4.127917   5.074276
    19  H    6.347206   4.965039   4.693509   5.919617   7.118798
    20  H    7.612271   6.232802   5.412800   6.232802   7.612271
    21  H    7.118798   5.919617   4.693509   4.965039   6.347206
    22  H    5.074276   4.127917   2.736837   2.578650   3.918930
                    6          7          8          9         10
     6  C    0.000000
     7  H    2.146700   0.000000
     8  H    3.396345   2.471400   0.000000
     9  H    3.396345   4.942800   4.280590   0.000000
    10  H    2.146700   4.280590   4.942800   2.471400   0.000000
    11  H    1.070000   2.471400   4.280590   4.280590   2.471400
    12  C    5.187469   4.965039   2.578650   4.127917   5.919617
    13  C    6.558176   6.347206   3.918930   5.074276   7.118798
    14  C    7.145600   7.300676   4.990735   4.990735   7.300676
    15  C    6.558176   7.118798   5.074276   3.918930   6.347206
    16  C    5.187469   5.919617   4.127917   2.578650   4.965039
    17  C    4.342800   4.693509   2.736837   2.736837   4.693509
    18  H    4.990735   4.342800   1.871400   4.671787   6.097816
    19  H    7.300676   6.814200   4.342800   6.097816   8.047159
    20  H    8.215600   8.329571   5.974992   5.974992   8.329571
    21  H    7.300676   8.047159   6.097816   4.342800   6.814200
    22  H    4.990735   6.097816   4.671787   1.871400   4.342800
                   11         12         13         14         15
    11  H    0.000000
    12  C    6.232802   0.000000
    13  C    7.612271   1.401400   0.000000
    14  C    8.215600   2.427296   1.401400   0.000000
    15  C    7.612271   2.802800   2.427296   1.401400   0.000000
    16  C    6.232802   2.427296   2.802800   2.427296   1.401400
    17  C    5.412800   1.401400   2.427296   2.802800   2.427296
    18  H    5.974992   1.070000   2.146700   3.396345   3.872800
    19  H    8.329571   2.146700   1.070000   2.146700   3.396345
    20  H    9.285600   3.396345   2.146700   1.070000   2.146700
    21  H    8.329571   3.872800   3.396345   2.146700   1.070000
    22  H    5.974992   3.396345   3.872800   3.396345   2.146700
                   16         17         18         19         20
    16  C    0.000000
    17  C    1.401400   0.000000
    18  H    3.396345   2.146700   0.000000
    19  H    3.872800   3.396345   2.471400   0.000000
    20  H    3.396345   3.872800   4.280590   2.471400   0.000000
    21  H    2.146700   3.396345   4.942800   4.280590   2.471400
    22  H    1.070000   2.146700   4.280590   4.942800   4.280590
                   21         22
    21  H    0.000000
    22  H    2.471400   0.000000
 Stoichiometry    C12H10
 Framework group  C2[X(C12H10)]
 Deg. of freedom    31
 Full point group                 C2      NOp   2
 Largest Abelian subgroup         C2      NOp   2
 Largest concise Abelian subgroup C2      NOp   2
                         Standard orientation:                         
 ---------------------------------------------------------------------
 Center     Atomic      Atomic             Coordinates (Angstroms)
 Number     Number       Type             X           Y           Z
 ---------------------------------------------------------------------
      1          6           0       -1.213648    2.872100    0.000000
      2          6           0       -1.213648    1.470700   -0.000003
      3          6           0        0.000000    0.770000   -0.000002
      4          6           0        1.213648    1.470700   -0.000001
      5          6           0        1.213648    2.872100    0.000002
      6          6           0        0.000000    3.572800    0.000003
      7          1           0       -2.140295    3.407100    0.000001
      8          1           0       -2.140295    0.935700   -0.000004
      9          1           0        2.140295    0.935700   -0.000001
     10          1           0        2.140295    3.407100    0.000003
     11          1           0        0.000000    4.642800    0.000005
     12          6           0       -1.213648   -1.470700   -0.000001
     13          6           0       -1.213648   -2.872100    0.000002
     14          6           0        0.000000   -3.572800    0.000003
     15          6           0        1.213648   -2.872100    0.000000
     16          6           0        1.213648   -1.470700   -0.000003
     17          6           0        0.000000   -0.770000   -0.000002
     18          1           0       -2.140295   -0.935700   -0.000001
     19          1           0       -2.140295   -3.407100    0.000003
     20          1           0        0.000000   -4.642800    0.000005
     21          1           0        2.140295   -3.407100    0.000001
     22          1           0        2.140295   -0.935700   -0.000004
 ---------------------------------------------------------------------
 Rotational constants (GHZ):      2.8338578      0.5528501      0.4626022
 Standard basis: 6-31G(d) (6D, 7F)
 There are   100 symmetry adapted cartesian basis functions of A   symmetry.
 There are   100 symmetry adapted cartesian basis functions of B   symmetry.
 There are   100 symmetry adapted basis functions of A   symmetry.
 There are   100 symmetry adapted basis functions of B   symmetry.
   200 basis functions,   376 primitive gaussians,   200 cartesian basis functions
    41 alpha electrons       41 beta electrons
       nuclear repulsion energy       597.8845613711 Hartrees.
 NAtoms=   22 NActive=   22 NUniq=   11 SFac= 4.00D+00 NAtFMM=   60 NAOKFM=F Big=F
 Integral buffers will be    131072 words long.
 Raffenetti 1 integral format.
 Two-electron integral symmetry is turned on.
 One-electron integrals computed using PRISM.
 NBasis=   200 RedAO= T EigKep=  2.89D-04  NBF=   100   100
 NBsUse=   200 1.00D-06 EigRej= -1.00D+00 NBFU=   100   100
 ExpMin= 1.61D-01 ExpMax= 3.05D+03 ExpMxC= 4.57D+02 IAcc=1 IRadAn=         1 AccDes= 0.00D+00
 Harris functional with IExCor=  205 and IRadAn=       1 diagonalized for initial guess.
 HarFok:  IExCor=  205 AccDes= 0.00D+00 IRadAn=         1 IDoV= 1 UseB2=F ITyADJ=14
 ICtDFT=  3500011 ScaDFX=  1.000000  1.000000  1.000000  1.000000
 FoFCou: FMM=F IPFlag=           0 FMFlag=      100000 FMFlg1=           0
         NFxFlg=           0 DoJE=T BraDBF=F KetDBF=T FulRan=T
         wScrn=  0.000000 ICntrl=     500 IOpCl=  0 I1Cent=   200000004 NGrid=           0
         NMat0=    1 NMatS0=      1 NMatT0=    0 NMatD0=    1 NMtDS0=    0 NMtDT0=    0
 Petite list used in FoFCou.
 Initial guess orbital symmetries:
       Occupied  (B) (A) (B) (A) (B) (A) (A) (B) (B) (A) (A) (B)
                 (A) (B) (A) (B) (A) (B) (B) (A) (A) (B) (A) (B)
                 (B) (A) (A) (B) (B) (A) (A) (A) (B) (B) (B) (A)
                 (A) (A) (B) (A) (B)
       Virtual   (A) (B) (A) (B) (A) (A) (B) (B) (B) (A) (B) (B)
                 (A) (A) (B) (A) (B) (A) (B) (B) (A) (A) (B) (A)
                 (B) (B) (B) (A) (A) (A) (A) (B) (B) (B) (A) (B)
                 (A) (A) (B) (B) (A) (B) (A) (A) (A) (B) (B) (B)
                 (A) (A) (B) (A) (A) (B) (B) (B) (A) (A) (B) (B)
                 (B) (A) (A) (B) (A) (A) (B) (A) (B) (B) (A) (B)
                 (A) (A) (B) (B) (A) (A) (B) (B) (A) (A) (B) (A)
                 (B) (B) (B) (A) (A) (B) (B) (A) (A) (A) (B) (A)
                 (A) (A) (B) (B) (A) (B) (A) (B) (A) (B) (B) (A)
                 (B) (A) (B) (A) (A) (A) (B) (A) (B) (B) (B) (A)
                 (B) (A) (B) (A) (A) (B) (B) (A) (B) (A) (A) (B)
                 (B) (B) (A) (A) (A) (B) (B) (A) (B) (A) (B) (B)
                 (A) (A) (B) (A) (B) (A) (B) (A) (B) (A) (B) (A)
                 (B) (A) (B)
 The electronic state of the initial guess is 1-A.
 Requested convergence on RMS density matrix=1.00D-08 within 128 cycles.
 Requested convergence on MAX density matrix=1.00D-06.
 Requested convergence on             energy=1.00D-06.
 No special actions if energy rises.
 Integral accuracy reduced to 1.0D-05 until final iterations.
 Initial convergence to 1.0D-05 achieved.  Increase integral accuracy.
 SCF Done:  E(RHF) =  -460.242919987     A.U. after   13 cycles
            NFock= 13  Conv=0.76D-08     -V/T= 2.0018
 Range of M.O.s used for correlation:     1   200
 NBasis=   200 NAE=    41 NBE=    41 NFC=     0 NFV=     0
 NROrb=    200 NOA=    41 NOB=    41 NVA=   159 NVB=   159

 **** Warning!!: The largest alpha MO coefficient is  0.12717299D+02

 Symmetrizing basis deriv contribution to polar:
 IMax=3 JMax=2 DiffMx= 0.00D+00
 G2DrvN: will do    23 centers at a time, making    1 passes.
 Calling FoFCou, ICntrl=  3107 FMM=F I1Cent=   0 AccDes= 0.00D+00.
 End of G2Drv F.D. properties file   721 does not exist.
 End of G2Drv F.D. properties file   722 does not exist.
 End of G2Drv F.D. properties file   788 does not exist.
          IDoAtm=1111111111111111111111
          Differentiating once with respect to nuclear coordinates.
          There are    36 degrees of freedom in the 1st order CPHF.  IDoFFX=4 NUNeed=    36.
     33 vectors produced by pass  0 Test12= 1.81D-14 2.78D-09 XBig12= 5.80D-02 6.95D-02.
 AX will form    33 AO Fock derivatives at one time.
     33 vectors produced by pass  1 Test12= 1.81D-14 2.78D-09 XBig12= 4.12D-03 2.07D-02.
     33 vectors produced by pass  2 Test12= 1.81D-14 2.78D-09 XBig12= 1.60D-04 4.60D-03.
     33 vectors produced by pass  3 Test12= 1.81D-14 2.78D-09 XBig12= 3.10D-06 3.45D-04.
     33 vectors produced by pass  4 Test12= 1.81D-14 2.78D-09 XBig12= 7.02D-08 4.58D-05.
     33 vectors produced by pass  5 Test12= 1.81D-14 2.78D-09 XBig12= 7.60D-10 3.27D-06.
     33 vectors produced by pass  6 Test12= 1.81D-14 2.78D-09 XBig12= 7.82D-12 4.45D-07.
     20 vectors produced by pass  7 Test12= 1.81D-14 2.78D-09 XBig12= 5.86D-14 3.28D-08.
      1 vectors produced by pass  8 Test12= 1.81D-14 2.78D-09 XBig12= 5.10D-16 3.27D-09.
 InvSVY:  IOpt=1 It=  1 EMax= 3.05D-16
 Solved reduced A of dimension   252 with    36 vectors.
 End of Minotr F.D. properties file   721 does not exist.
 End of Minotr F.D. properties file   722 does not exist.
 End of Minotr F.D. properties file   788 does not exist.

 **********************************************************************

            Population analysis using the SCF density.

 **********************************************************************

 Orbital symmetries:
       Occupied  (A) (B) (B) (A) (A) (B) (B) (A) (A) (B) (B) (A)
                 (A) (B) (A) (B) (A) (B) (B) (A) (A) (B) (A) (B)
                 (A) (B) (B) (B) (A) (A) (A) (A) (B) (B) (B) (A)
                 (A) (A) (B) (A) (B)
       Virtual   (A) (B) (A) (B) (A) (B) (B) (A) (A) (B) (B) (A)
                 (A) (B) (B) (B) (A) (A) (B) (B) (A) (A) (B) (A)
                 (B) (B) (A) (A) (B) (B) (B) (A) (B) (A) (A) (B)
                 (A) (A) (B) (B) (A) (A) (A) (B) (B) (A) (B) (B)
                 (A) (A) (B) (A) (B) (A) (B) (B) (A) (A) (B) (B)
                 (A) (B) (A) (A) (B) (A) (B) (B) (A) (A) (B) (B)
                 (A) (A) (B) (B) (A) (A) (B) (B) (A) (A) (B) (B)
                 (B) (A) (A) (B) (A) (B) (A) (A) (A) (B) (A) (B)
                 (A) (A) (B) (B) (B) (A) (A) (B) (A) (B) (B) (B)
                 (A) (A) (B) (A) (A) (A) (B) (A) (B) (B) (B) (A)
                 (B) (A) (B) (A) (A) (B) (B) (A) (A) (B) (B) (B)
                 (B) (A) (A) (A) (B) (A) (A) (B) (B) (A) (B) (B)
                 (A) (A) (B) (A) (B) (A) (B) (A) (B) (A) (B) (A)
                 (B) (A) (B)
 The electronic state is 1-A.
 Alpha  occ. eigenvalues --  -11.24834 -11.24777 -11.23566 -11.23566 -11.23549
 Alpha  occ. eigenvalues --  -11.23549 -11.23268 -11.23268 -11.23267 -11.23266
 Alpha  occ. eigenvalues --  -11.23204 -11.23204  -1.15937  -1.13273  -1.04217
 Alpha  occ. eigenvalues --   -1.01751  -1.00518  -0.97759  -0.84654  -0.84219
 Alpha  occ. eigenvalues --   -0.80429  -0.78640  -0.72118  -0.67523  -0.66240
 Alpha  occ. eigenvalues --   -0.63207  -0.61478  -0.60109  -0.59263  -0.58010
 Alpha  occ. eigenvalues --   -0.57306  -0.51667  -0.51267  -0.51025  -0.48157
 Alpha  occ. eigenvalues --   -0.47800  -0.47440  -0.36806  -0.33464  -0.32751
 Alpha  occ. eigenvalues --   -0.28881
 Alpha virt. eigenvalues --    0.10441   0.12878   0.15717   0.19416   0.23401
 Alpha virt. eigenvalues --    0.25244   0.26927   0.29095   0.30795   0.31964
 Alpha virt. eigenvalues --    0.32510   0.32997   0.34006   0.38942   0.40853
 Alpha virt. eigenvalues --    0.42700   0.43598   0.43970   0.44918   0.47638
 Alpha virt. eigenvalues --    0.48637   0.48982   0.56982   0.57374   0.62417
 Alpha virt. eigenvalues --    0.62472   0.73044   0.74053   0.75316   0.76259
 Alpha virt. eigenvalues --    0.76680   0.77291   0.77671   0.78682   0.78985
 Alpha virt. eigenvalues --    0.80760   0.81160   0.82282   0.83821   0.83975
 Alpha virt. eigenvalues --    0.84334   0.84357   0.84783   0.84867   0.86782
 Alpha virt. eigenvalues --    0.87347   0.88021   0.88156   0.92292   0.97079
 Alpha virt. eigenvalues --    0.97748   1.01009   1.05225   1.06314   1.10718
 Alpha virt. eigenvalues --    1.11409   1.12355   1.12761   1.12884   1.15939
 Alpha virt. eigenvalues --    1.15957   1.17116   1.19252   1.19931   1.20835
 Alpha virt. eigenvalues --    1.22023   1.22292   1.26508   1.26774   1.27062
 Alpha virt. eigenvalues --    1.27780   1.34853   1.37058   1.39883   1.44136
 Alpha virt. eigenvalues --    1.45079   1.45112   1.45982   1.46903   1.50318
 Alpha virt. eigenvalues --    1.52644   1.56226   1.64514   1.70121   1.70343
 Alpha virt. eigenvalues --    1.71223   1.73419   1.74364   1.76080   1.77017
 Alpha virt. eigenvalues --    1.77266   1.77398   1.79116   1.79132   1.81804
 Alpha virt. eigenvalues --    1.82056   1.98972   2.04794   2.08500   2.09730
 Alpha virt. eigenvalues --    2.13405   2.15624   2.15632   2.21148   2.25018
 Alpha virt. eigenvalues --    2.28213   2.31928   2.33138   2.33604   2.38025
 Alpha virt. eigenvalues --    2.38803   2.39092   2.43741   2.44961   2.45168
 Alpha virt. eigenvalues --    2.46240   2.47894   2.48744   2.53146   2.53690
 Alpha virt. eigenvalues --    2.58730   2.60018   2.62566   2.63183   2.66616
 Alpha virt. eigenvalues --    2.68550   2.77774   2.83564   2.92078   2.94131
 Alpha virt. eigenvalues --    2.96139   2.96192   2.97325   2.97895   3.01906
 Alpha virt. eigenvalues --    3.06940   3.09814   3.09980   3.10226   3.12111
 Alpha virt. eigenvalues --    3.16456   3.20074   3.32432   3.34025   3.59139
 Alpha virt. eigenvalues --    3.72539   3.85384   4.49787   4.52109   4.52509
 Alpha virt. eigenvalues --    4.54109   4.55666   4.58927   4.70752   4.75487
 Alpha virt. eigenvalues --    4.76701   4.84359   5.04963   5.19671
          Condensed to atoms (all electrons):
               1          2          3          4          5          6
     1  C    4.888098   0.539917  -0.034198  -0.033080  -0.041142   0.550769
     2  C    0.539917   4.947242   0.561529  -0.050073  -0.033080  -0.048295
     3  C   -0.034198   0.561529   4.706510   0.561529  -0.034198  -0.028301
     4  C   -0.033080  -0.050073   0.561529   4.947242   0.539917  -0.048295
     5  C   -0.041142  -0.033080  -0.034198   0.539917   4.888098   0.550769
     6  C    0.550769  -0.048295  -0.028301  -0.048295   0.550769   4.898197
     7  H    0.383409  -0.029760   0.001583   0.000248   0.002486  -0.029826
     8  H   -0.029341   0.376826  -0.028994   0.002790   0.000129   0.002269
     9  H    0.000129   0.002790  -0.028994   0.376826  -0.029341   0.002269
    10  H    0.002486   0.000248   0.001583  -0.029760   0.383409  -0.029826
    11  H   -0.031109   0.002551   0.000233   0.002551  -0.031109   0.384329
    12  C    0.000387  -0.012860  -0.042412   0.003613  -0.000097  -0.000003
    13  C   -0.000004   0.000387   0.002812  -0.000097   0.000001   0.000000
    14  C    0.000000  -0.000003   0.000229  -0.000003   0.000000   0.000000
    15  C    0.000001  -0.000097   0.002812   0.000387  -0.000004   0.000000
    16  C   -0.000097   0.003613  -0.042412  -0.012860   0.000387  -0.000003
    17  C    0.002812  -0.042412   0.396192  -0.042412   0.002812   0.000229
    18  H    0.000259   0.000611  -0.005459  -0.000116   0.000000  -0.000004
    19  H    0.000000   0.000003  -0.000095   0.000001   0.000000   0.000000
    20  H    0.000000   0.000000   0.000004   0.000000   0.000000   0.000000
    21  H    0.000000   0.000001  -0.000095   0.000003   0.000000   0.000000
    22  H    0.000000  -0.000116  -0.005459   0.000611   0.000259  -0.000004
               7          8          9         10         11         12
     1  C    0.383409  -0.029341   0.000129   0.002486  -0.031109   0.000387
     2  C   -0.029760   0.376826   0.002790   0.000248   0.002551  -0.012860
     3  C    0.001583  -0.028994  -0.028994   0.001583   0.000233  -0.042412
     4  C    0.000248   0.002790   0.376826  -0.029760   0.002551   0.003613
     5  C    0.002486   0.000129  -0.029341   0.383409  -0.031109  -0.000097
     6  C   -0.029826   0.002269   0.002269  -0.029826   0.384329  -0.000003
     7  H    0.471223  -0.000854   0.000010  -0.000107  -0.001407   0.000003
     8  H   -0.000854   0.471266  -0.000115   0.000010  -0.000108   0.000611
     9  H    0.000010  -0.000115   0.471266  -0.000854  -0.000108  -0.000116
    10  H   -0.000107   0.000010  -0.000854   0.471223  -0.001407   0.000001
    11  H   -0.001407  -0.000108  -0.000108  -0.001407   0.474840   0.000000
    12  C    0.000003   0.000611  -0.000116   0.000001   0.000000   4.947242
    13  C    0.000000   0.000259   0.000000   0.000000   0.000000   0.539917
    14  C    0.000000  -0.000004  -0.000004   0.000000   0.000000  -0.048295
    15  C    0.000000   0.000000   0.000259   0.000000   0.000000  -0.033080
    16  C    0.000001  -0.000116   0.000611   0.000003   0.000000  -0.050073
    17  C   -0.000095  -0.005459  -0.005459  -0.000095   0.000004   0.561529
    18  H   -0.000002   0.001632   0.000005   0.000000   0.000000   0.376826
    19  H    0.000000  -0.000002   0.000000   0.000000   0.000000  -0.029760
    20  H    0.000000   0.000000   0.000000   0.000000   0.000000   0.002551
    21  H    0.000000   0.000000  -0.000002   0.000000   0.000000   0.000248
    22  H    0.000000   0.000005   0.001632  -0.000002   0.000000   0.002790
              13         14         15         16         17         18
     1  C   -0.000004   0.000000   0.000001  -0.000097   0.002812   0.000259
     2  C    0.000387  -0.000003  -0.000097   0.003613  -0.042412   0.000611
     3  C    0.002812   0.000229   0.002812  -0.042412   0.396192  -0.005459
     4  C   -0.000097  -0.000003   0.000387  -0.012860  -0.042412  -0.000116
     5  C    0.000001   0.000000  -0.000004   0.000387   0.002812   0.000000
     6  C    0.000000   0.000000   0.000000  -0.000003   0.000229  -0.000004
     7  H    0.000000   0.000000   0.000000   0.000001  -0.000095  -0.000002
     8  H    0.000259  -0.000004   0.000000  -0.000116  -0.005459   0.001632
     9  H    0.000000  -0.000004   0.000259   0.000611  -0.005459   0.000005
    10  H    0.000000   0.000000   0.000000   0.000003  -0.000095   0.000000
    11  H    0.000000   0.000000   0.000000   0.000000   0.000004   0.000000
    12  C    0.539917  -0.048295  -0.033080  -0.050073   0.561529   0.376826
    13  C    4.888098   0.550769  -0.041142  -0.033080  -0.034198  -0.029341
    14  C    0.550769   4.898197   0.550769  -0.048295  -0.028301   0.002269
    15  C   -0.041142   0.550769   4.888098   0.539917  -0.034198   0.000129
    16  C   -0.033080  -0.048295   0.539917   4.947242   0.561529   0.002790
    17  C   -0.034198  -0.028301  -0.034198   0.561529   4.706510  -0.028994
    18  H   -0.029341   0.002269   0.000129   0.002790  -0.028994   0.471266
    19  H    0.383409  -0.029826   0.002486   0.000248   0.001583  -0.000854
    20  H   -0.031109   0.384329  -0.031109   0.002551   0.000233  -0.000108
    21  H    0.002486  -0.029826   0.383409  -0.029760   0.001583   0.000010
    22  H    0.000129   0.002269  -0.029341   0.376826  -0.028994  -0.000115
              19         20         21         22
     1  C    0.000000   0.000000   0.000000   0.000000
     2  C    0.000003   0.000000   0.000001  -0.000116
     3  C   -0.000095   0.000004  -0.000095  -0.005459
     4  C    0.000001   0.000000   0.000003   0.000611
     5  C    0.000000   0.000000   0.000000   0.000259
     6  C    0.000000   0.000000   0.000000  -0.000004
     7  H    0.000000   0.000000   0.000000   0.000000
     8  H   -0.000002   0.000000   0.000000   0.000005
     9  H    0.000000   0.000000  -0.000002   0.001632
    10  H    0.000000   0.000000   0.000000  -0.000002
    11  H    0.000000   0.000000   0.000000   0.000000
    12  C   -0.029760   0.002551   0.000248   0.002790
    13  C    0.383409  -0.031109   0.002486   0.000129
    14  C   -0.029826   0.384329  -0.029826   0.002269
    15  C    0.002486  -0.031109   0.383409  -0.029341
    16  C    0.000248   0.002551  -0.029760   0.376826
    17  C    0.001583   0.000233   0.001583  -0.028994
    18  H   -0.000854  -0.000108   0.000010  -0.000115
    19  H    0.471223  -0.001407  -0.000107   0.000010
    20  H   -0.001407   0.474840  -0.001407  -0.000108
    21  H   -0.000107  -0.001407   0.471223  -0.000854
    22  H    0.000010  -0.000108  -0.000854   0.471266
 Mulliken charges:
               1
     1  C   -0.199295
     2  C   -0.219023
     3  C    0.015602
     4  C   -0.219023
     5  C   -0.199295
     6  C   -0.204272
     7  H    0.203088
     8  H    0.209195
     9  H    0.209195
    10  H    0.203088
    11  H    0.200740
    12  C   -0.219023
    13  C   -0.199295
    14  C   -0.204272
    15  C   -0.199295
    16  C   -0.219023
    17  C    0.015602
    18  H    0.209195
    19  H    0.203088
    20  H    0.200740
    21  H    0.203088
    22  H    0.209195
 Sum of Mulliken charges =   0.00000
 Mulliken charges with hydrogens summed into heavy atoms:
               1
     1  C    0.003793
     2  C   -0.009828
     3  C    0.015602
     4  C   -0.009828
     5  C    0.003793
     6  C   -0.003533
    12  C   -0.009828
    13  C    0.003793
    14  C   -0.003533
    15  C    0.003793
    16  C   -0.009828
    17  C    0.015602
 APT charges:
               1
     1  C   -0.573139
     2  C   -0.553185
     3  C   -0.426480
     4  C   -0.553185
     5  C   -0.573139
     6  C   -0.595538
     7  H    0.759702
     8  H    0.416305
     9  H    0.416305
    10  H    0.759702
    11  H    0.922652
    12  C   -0.553185
    13  C   -0.573139
    14  C   -0.595538
    15  C   -0.573139
    16  C   -0.553185
    17  C   -0.426480
    18  H    0.416305
    19  H    0.759702
    20  H    0.922652
    21  H    0.759702
    22  H    0.416305
 Sum of APT charges =   0.00000
 APT charges with hydrogens summed into heavy atoms:
               1
     1  C    0.186563
     2  C   -0.136880
     3  C   -0.426480
     4  C   -0.136880
     5  C    0.186563
     6  C    0.327114
    12  C   -0.136880
    13  C    0.186563
    14  C    0.327114
    15  C    0.186563
    16  C   -0.136880
    17  C   -0.426480
 Electronic spatial extent (au):  <R**2>=           2328.5556
 Charge=              0.0000 electrons
 Dipole moment (field-independent basis, Debye):
    X=              0.0000    Y=              0.0000    Z=              0.0000  Tot=              0.0000
 Quadrupole moment (field-independent basis, Debye-Ang):
   XX=            -60.5911   YY=            -60.9738   ZZ=            -77.7087
   XY=              0.0000   XZ=              0.0000   YZ=              0.0000
 Traceless Quadrupole moment (field-independent basis, Debye-Ang):
   XX=              5.8335   YY=              5.4507   ZZ=            -11.2842
   XY=              0.0000   XZ=              0.0000   YZ=              0.0000
 Octapole moment (field-independent basis, Debye-Ang**2):
  XXX=              0.0000  YYY=              0.0000  ZZZ=              0.0000  XYY=              0.0000
  XXY=              0.0000  XXZ=              0.0000  XZZ=              0.0000  YZZ=              0.0000
  YYZ=              0.0002  XYZ=              0.0000
 Hexadecapole moment (field-independent basis, Debye-Ang**3):
 XXXX=           -528.5455 YYYY=          -2295.4016 ZZZZ=            -84.2291 XXXY=              0.0000
 XXXZ=              0.0000 YYYX=              0.0000 YYYZ=              0.0000 ZZZX=              0.0000
 ZZZY=              0.0000 XXYY=           -469.1548 XXZZ=           -123.2023 YYZZ=           -499.6221
 XXYZ=              0.0000 YYXZ=              0.0000 ZZXY=              0.0000
 N-N= 5.978845613711D+02 E-N=-2.266877098397D+03  KE= 4.594066813161D+02
 Symmetry A    KE= 2.311787073563D+02
 Symmetry B    KE= 2.282279739598D+02
  Exact polarizability:   0.000   0.000   0.000   0.000   0.000   0.000
 Approx polarizability: 133.745   0.000 149.893   0.000   0.000  46.514
 Calling FoFJK, ICntrl=    100147 FMM=F ISym2X=1 I1Cent= 0 IOpClX= 0 NMat=1 NMatS=1 NMatT=0.
 ***** Axes restored to original set *****
 -------------------------------------------------------------------
 Center     Atomic                   Forces (Hartrees/Bohr)
 Number     Number              X              Y              Z
 -------------------------------------------------------------------
      1        6           0.010605752    0.018967589    0.000718250
      2        6          -0.019798064    0.014885258    0.000530054
      3        6           0.023812164    0.001791575    0.000094994
      4        6          -0.017343123   -0.017679676   -0.000678159
      5        6           0.013329767   -0.017166735   -0.000622444
      6        6           0.018006829    0.001354802    0.000071648
      7        1          -0.001599314   -0.003615751   -0.000136436
      8        1          -0.004134603   -0.001838644   -0.000073361
      9        1          -0.004363620    0.001199252    0.000039374
     10        1          -0.002123350    0.003335662    0.000121523
     11        1          -0.003918290   -0.000294804   -0.000015629
     12        6           0.017343123    0.017679670    0.000678317
     13        6          -0.013329767    0.017166731    0.000622563
     14        6          -0.018006829   -0.001354783   -0.000072164
     15        6          -0.010605752   -0.018967602   -0.000717918
     16        6           0.019798064   -0.014885267   -0.000529796
     17        6          -0.023812164   -0.001791568   -0.000095181
     18        1           0.004363620   -0.001199251   -0.000039397
     19        1           0.002123350   -0.003335662   -0.000121510
     20        1           0.003918290    0.000294803    0.000015664
     21        1           0.001599314    0.003615755    0.000136328
     22        1           0.004134603    0.001838647    0.000073281
 -------------------------------------------------------------------
 Cartesian Forces:  Max     0.023812164 RMS     0.009781229
 FormGI is forming the generalized inverse of G from B-inverse, IUseBI=4.

 GradGradGradGradGradGradGradGradGradGradGradGradGradGradGradGradGradGrad
 Berny optimization.
 Internal  Forces:  Max     0.019489024 RMS     0.006215652
 Search for a local minimum.
 Step number   1 out of a maximum of  121
 All quantities printed in internal units (Hartrees-Bohrs-Radians)
 Mixed Optimization -- RFO/linear search
 Second derivative matrix not updated -- analytic derivatives used.
 ITU=  0
     Eigenvalues ---   -0.01815   0.01559   0.01719   0.01869   0.02017
     Eigenvalues ---    0.02105   0.02117   0.02596   0.02693   0.02811
     Eigenvalues ---    0.02835   0.02858   0.03035   0.03176   0.03192
     Eigenvalues ---    0.03217   0.03246   0.03269   0.03298   0.11856
     Eigenvalues ---    0.12214   0.12634   0.13118   0.13640   0.14005
     Eigenvalues ---    0.14199   0.14252   0.14457   0.15597   0.19392
     Eigenvalues ---    0.20512   0.21492   0.21581   0.21636   0.21708
     Eigenvalues ---    0.21836   0.21867   0.24706   0.33294   0.39541
     Eigenvalues ---    0.40925   0.41095   0.41202   0.41239   0.41240
     Eigenvalues ---    0.41313   0.41451   0.41452   0.42316   0.43796
     Eigenvalues ---    0.44029   0.44141   0.49201   0.49679   0.49950
     Eigenvalues ---    0.50118   0.51272   0.53589   0.54949   0.72383
 RFO step:  Lambda=-1.81537145D-02 EMin=-1.81537115D-02
 I=     1 Eig=   -1.82D-02 Dot1=  2.30D-08
 I=     1 Stepn=  6.00D-01 RXN=   6.00D-01 EDone=F
 Mixed    1 eigenvectors in step.  Raw Step.Grad=  2.30D-08.
 RFO eigenvector is Hessian eigenvector with negative curvature.
 Taking step of  6.00D-01 in eigenvector direction(s).  Step.Grad= -1.53D-09.
 Linear search not attempted -- first point.
 Iteration  1 RMS(Cart)=  0.13185243 RMS(Int)=  0.01876502
 Iteration  2 RMS(Cart)=  0.06088049 RMS(Int)=  0.00089362
 Iteration  3 RMS(Cart)=  0.00148925 RMS(Int)=  0.00005309
 Iteration  4 RMS(Cart)=  0.00000073 RMS(Int)=  0.00005309
 ClnCor:  largest displacement from symmetrization is 2.55D-09 for atom    21.
 Variable       Old X    -DE/DX   Delta X   Delta X   Delta X     New X
                                 (Linear)    (Quad)   (Total)
    R1        2.64826  -0.01720   0.00000   0.00000   0.00000   2.64826
    R2        2.64826  -0.01949   0.00000   0.00000  -0.00002   2.64824
    R3        2.02201   0.00395   0.00000   0.00000   0.00000   2.02201
    R4        2.64826  -0.00671   0.00000   0.00000   0.00002   2.64828
    R5        2.02201  -0.00081   0.00000   0.00000   0.00000   2.02201
    R6        2.64826  -0.00671   0.00000   0.00000   0.00002   2.64828
    R7        2.91018  -0.01251   0.00000   0.00000   0.00000   2.91018
    R8        2.64826  -0.01720   0.00000   0.00000   0.00000   2.64826
    R9        2.02201  -0.00081   0.00000   0.00000   0.00000   2.02201
   R10        2.64826  -0.01949   0.00000   0.00000  -0.00002   2.64824
   R11        2.02201   0.00395   0.00000   0.00000   0.00000   2.02201
   R12        2.02201   0.00393   0.00000   0.00000   0.00000   2.02201
   R13        2.64826  -0.01720   0.00000   0.00000   0.00000   2.64826
   R14        2.64826  -0.00671   0.00000   0.00000   0.00002   2.64828
   R15        2.02201  -0.00081   0.00000   0.00000   0.00000   2.02201
   R16        2.64826  -0.01949   0.00000   0.00000  -0.00002   2.64824
   R17        2.02201   0.00395   0.00000   0.00000   0.00000   2.02201
   R18        2.64826  -0.01949   0.00000   0.00000  -0.00002   2.64824
   R19        2.02201   0.00393   0.00000   0.00000   0.00000   2.02201
   R20        2.64826  -0.01720   0.00000   0.00000   0.00000   2.64826
   R21        2.02201   0.00395   0.00000   0.00000   0.00000   2.02201
   R22        2.64826  -0.00671   0.00000   0.00000   0.00002   2.64828
   R23        2.02201  -0.00081   0.00000   0.00000   0.00000   2.02201
    A1        2.09440   0.00262   0.00000   0.00000   0.00002   2.09442
    A2        2.09440  -0.00144   0.00000   0.00000  -0.00002   2.09437
    A3        2.09440  -0.00118   0.00000   0.00000  -0.00002   2.09437
    A4        2.09440   0.00638   0.00000   0.00000  -0.00008   2.09432
    A5        2.09440  -0.00769   0.00000   0.00000  -0.00018   2.09422
    A6        2.09440   0.00131   0.00000   0.00000  -0.00018   2.09422
    A7        2.09440  -0.01505   0.00000   0.00000   0.00009   2.09448
    A8        2.09440   0.00753   0.00000   0.00000  -0.00004   2.09435
    A9        2.09440   0.00753   0.00000   0.00000  -0.00004   2.09435
   A10        2.09440   0.00638   0.00000   0.00000  -0.00008   2.09432
   A11        2.09440   0.00131   0.00000   0.00000  -0.00018   2.09422
   A12        2.09440  -0.00769   0.00000   0.00000  -0.00018   2.09422
   A13        2.09440   0.00262   0.00000   0.00000   0.00002   2.09442
   A14        2.09440  -0.00144   0.00000   0.00000  -0.00002   2.09437
   A15        2.09440  -0.00118   0.00000   0.00000  -0.00002   2.09437
   A16        2.09440  -0.00293   0.00000   0.00000   0.00001   2.09441
   A17        2.09440   0.00147   0.00000   0.00000  -0.00001   2.09439
   A18        2.09440   0.00147   0.00000   0.00000  -0.00001   2.09439
   A19        2.09440   0.00638   0.00000   0.00000  -0.00008   2.09432
   A20        2.09440  -0.00769   0.00000   0.00000  -0.00018   2.09422
   A21        2.09440   0.00131   0.00000   0.00000  -0.00018   2.09422
   A22        2.09440   0.00262   0.00000   0.00000   0.00002   2.09442
   A23        2.09440  -0.00144   0.00000   0.00000  -0.00002   2.09437
   A24        2.09440  -0.00118   0.00000   0.00000  -0.00002   2.09437
   A25        2.09440  -0.00293   0.00000   0.00000   0.00001   2.09441
   A26        2.09440   0.00147   0.00000   0.00000  -0.00001   2.09439
   A27        2.09440   0.00147   0.00000   0.00000  -0.00001   2.09439
   A28        2.09440   0.00262   0.00000   0.00000   0.00002   2.09442
   A29        2.09440  -0.00118   0.00000   0.00000  -0.00002   2.09437
   A30        2.09440  -0.00144   0.00000   0.00000  -0.00002   2.09437
   A31        2.09440   0.00638   0.00000   0.00000  -0.00008   2.09432
   A32        2.09440  -0.00769   0.00000   0.00000  -0.00018   2.09422
   A33        2.09440   0.00131   0.00000   0.00000  -0.00018   2.09422
   A34        2.09440   0.00753   0.00000   0.00000  -0.00004   2.09435
   A35        2.09440   0.00753   0.00000   0.00000  -0.00004   2.09435
   A36        2.09440  -0.01505   0.00000   0.00000   0.00009   2.09448
    D1        0.00000   0.00000   0.00000  -0.00024  -0.00024  -0.00024
    D2        3.14159   0.00000   0.00000   0.03140   0.03140  -3.11019
    D3       -3.14159   0.00000   0.00000  -0.00729  -0.00729   3.13431
    D4        0.00000   0.00000   0.00000   0.02435   0.02435   0.02435
    D5        0.00000   0.00000   0.00000   0.00012   0.00012   0.00012
    D6       -3.14159   0.00000   0.00000   0.00012   0.00012  -3.14147
    D7        3.14159   0.00000   0.00000   0.00717   0.00717  -3.13442
    D8        0.00000   0.00000   0.00000   0.00717   0.00717   0.00717
    D9        0.00000   0.00000   0.00000   0.00012   0.00012   0.00012
   D10        3.14159   0.00000   0.00000   0.00012   0.00012  -3.14147
   D11        3.14159   0.00000   0.00000  -0.03152  -0.03152   3.11007
   D12        0.00000   0.00000   0.00000  -0.03152  -0.03152  -0.03152
   D13        0.00000   0.00000   0.00000   0.00012   0.00012   0.00012
   D14       -3.14159   0.00000   0.00000  -0.03152  -0.03152   3.11007
   D15       -3.14159   0.00000   0.00000   0.00012   0.00012  -3.14147
   D16        0.00000   0.00000   0.00000  -0.03152  -0.03152  -0.03152
   D17        0.00000   0.00000   0.00000  -0.29373  -0.29373  -0.29373
   D18        3.14159   0.00000   0.00000  -0.29373  -0.29373   2.84786
   D19        3.14159   0.00000   0.00000  -0.29373  -0.29373   2.84786
   D20        0.00000   0.00000   0.00000  -0.29373  -0.29373  -0.29373
   D21        0.00000   0.00000   0.00000  -0.00024  -0.00024  -0.00024
   D22        3.14159   0.00000   0.00000  -0.00729  -0.00729   3.13430
   D23       -3.14159   0.00000   0.00000   0.03140   0.03140  -3.11019
   D24        0.00000   0.00000   0.00000   0.02435   0.02435   0.02435
   D25        0.00000   0.00000   0.00000   0.00012   0.00012   0.00012
   D26        3.14159   0.00000   0.00000   0.00012   0.00012  -3.14147
   D27        3.14159   0.00000   0.00000   0.00717   0.00717  -3.13443
   D28        0.00000   0.00000   0.00000   0.00717   0.00717   0.00717
   D29        0.00000   0.00000   0.00000  -0.00024  -0.00024  -0.00024
   D30        3.14159   0.00000   0.00000  -0.00729  -0.00729   3.13430
   D31       -3.14159   0.00000   0.00000   0.03140   0.03140  -3.11019
   D32        0.00000   0.00000   0.00000   0.02435   0.02435   0.02435
   D33       -3.14159   0.00000   0.00000   0.00012   0.00012  -3.14147
   D34        0.00000   0.00000   0.00000   0.00012   0.00012   0.00012
   D35        0.00000   0.00000   0.00000  -0.03152  -0.03152  -0.03152
   D36       -3.14159   0.00000   0.00000  -0.03152  -0.03152   3.11007
   D37        0.00000   0.00000   0.00000   0.00012   0.00012   0.00012
   D38        3.14159   0.00000   0.00000   0.00012   0.00012  -3.14147
   D39        3.14159   0.00000   0.00000   0.00717   0.00717  -3.13443
   D40        0.00000   0.00000   0.00000   0.00717   0.00717   0.00717
   D41        0.00000   0.00000   0.00000   0.00012   0.00012   0.00012
   D42        3.14159   0.00000   0.00000   0.00717   0.00717  -3.13442
   D43       -3.14159   0.00000   0.00000   0.00012   0.00012  -3.14147
   D44        0.00000   0.00000   0.00000   0.00717   0.00717   0.00717
   D45        0.00000   0.00000   0.00000  -0.00024  -0.00024  -0.00024
   D46        3.14159   0.00000   0.00000   0.03140   0.03140  -3.11019
   D47       -3.14159   0.00000   0.00000  -0.00729  -0.00729   3.13431
   D48        0.00000   0.00000   0.00000   0.02435   0.02435   0.02435
   D49        3.14159   0.00000   0.00000   0.00012   0.00012  -3.14147
   D50        0.00000   0.00000   0.00000   0.00012   0.00012   0.00012
   D51        0.00000   0.00000   0.00000  -0.03152  -0.03152  -0.03152
   D52        3.14159   0.00000   0.00000  -0.03152  -0.03152   3.11007
         Item               Value     Threshold  Converged?
 Maximum Force            0.019489     0.000450     NO 
 RMS     Force            0.006216     0.000300     NO 
 Maximum Displacement     0.647870     0.001800     NO 
 RMS     Displacement     0.191254     0.001200     NO 
 Predicted change in Energy=-3.267681D-03
 GradGradGradGradGradGradGradGradGradGradGradGradGradGradGradGradGradGrad

                          Input orientation:                          
 ---------------------------------------------------------------------
 Center     Atomic      Atomic             Coordinates (Angstroms)
 Number     Number       Type             X           Y           Z
 ---------------------------------------------------------------------
      1          6           0       -2.678563    0.188870   -0.234255
      2          6           0       -1.281119    0.293941   -0.228541
      3          6           0       -0.672852    1.536313   -0.003878
      4          6           0       -1.461928    2.673552    0.215206
      5          6           0       -2.859362    2.568342    0.209764
      6          6           0       -3.467670    1.326037   -0.015033
      7          1           0       -3.143103   -0.758421   -0.412418
      8          1           0       -0.679112   -0.568672   -0.424461
      9          1           0       -0.997341    3.616414    0.415385
     10          1           0       -3.461812    3.435355    0.383669
     11          1           0       -4.534645    1.245759   -0.019291
     12          6           0        1.651446    0.501411    0.138145
     13          6           0        3.048880    0.606610    0.143868
     14          6           0        3.657612    1.862128    0.013420
     15          6           0        2.868930    3.012506   -0.122613
     16          6           0        1.471486    2.907425   -0.128055
     17          6           0        0.862795    1.651852    0.002255
     18          1           0        1.186467   -0.453673    0.266627
     19          1           0        3.650990   -0.270978    0.254331
     20          1           0        4.724588    1.942405    0.017683
     21          1           0        3.333810    3.970373   -0.228812
     22          1           0        0.869871    3.782261   -0.260798
 ---------------------------------------------------------------------
                    Distance matrix (angstroms):
                    1          2          3          4          5
     1  C    0.000000
     2  C    1.401400   0.000000
     3  C    2.427252   1.401410   0.000000
     4  C    2.802831   2.427375   1.401410   0.000000
     5  C    2.427288   2.802831   2.427252   1.401400   0.000000
     6  C    1.401390   2.427305   2.802739   2.427305   1.401390
     7  H    1.070000   2.146686   3.396299   3.872816   3.396317
     8  H    2.146591   1.070000   2.146600   3.396173   3.872543
     9  H    3.872543   3.396173   2.146600   1.070000   2.146591
    10  H    3.396317   3.872816   3.396299   2.146686   1.070000
    11  H    2.146687   3.396347   3.872739   3.396347   2.146687
    12  C    4.357217   2.962675   2.548245   3.797002   4.962330
    13  C    5.755093   4.357218   3.838941   4.962330   6.225758
    14  C    6.558068   5.187371   4.342739   5.187371   6.558067
    15  C    6.225758   4.962331   3.838941   4.357217   5.755093
    16  C    4.962331   3.797003   2.548246   2.962675   4.357218
    17  C    3.838941   2.548246   1.540000   2.548245   3.838941
    18  H    3.949962   2.625472   2.736839   4.098314   5.050202
    19  H    6.365015   4.987785   4.693462   5.900315   7.102704
    20  H    7.612162   6.232702   5.412739   6.232701   7.612161
    21  H    7.102705   5.900315   4.693462   4.987785   6.365015
    22  H    5.050203   4.098314   2.736839   2.625472   3.949963
                    6          7          8          9         10
     6  C    0.000000
     7  H    2.146677   0.000000
     8  H    3.396117   2.471316   0.000000
     9  H    3.396116   4.942543   4.280368   0.000000
    10  H    2.146677   4.280548   4.942543   2.471316   0.000000
    11  H    1.070000   2.471372   4.280358   4.280358   2.471372
    12  C    5.187371   4.987785   2.625472   4.098314   5.900315
    13  C    6.558067   6.365015   3.949963   5.050202   7.102704
    14  C    7.145477   7.300571   4.990762   4.990760   7.300570
    15  C    6.558068   7.102705   5.050203   3.949962   6.365015
    16  C    5.187371   5.900315   4.098314   2.625472   4.987785
    17  C    4.342739   4.693462   2.736839   2.736839   4.693462
    18  H    4.990760   4.393080   1.992790   4.621337   6.061744
    19  H    7.300570   6.844111   4.393081   6.061744   8.021570
    20  H    8.215477   8.329466   5.975029   5.975027   8.329465
    21  H    7.300571   8.021571   6.061745   4.393080   6.844111
    22  H    4.990762   6.061745   4.621337   1.992790   4.393081
                   11         12         13         14         15
    11  H    0.000000
    12  C    6.232701   0.000000
    13  C    7.612161   1.401400   0.000000
    14  C    8.215477   2.427305   1.401390   0.000000
    15  C    7.612162   2.802831   2.427288   1.401390   0.000000
    16  C    6.232702   2.427375   2.802831   2.427305   1.401400
    17  C    5.412739   1.401410   2.427252   2.802739   2.427252
    18  H    5.975027   1.070000   2.146591   3.396116   3.872543
    19  H    8.329465   2.146686   1.070000   2.146677   3.396317
    20  H    9.285477   3.396347   2.146687   1.070000   2.146687
    21  H    8.329466   3.872816   3.396317   2.146677   1.070000
    22  H    5.975029   3.396173   3.872543   3.396117   2.146591
                   16         17         18         19         20
    16  C    0.000000
    17  C    1.401410   0.000000
    18  H    3.396173   2.146600   0.000000
    19  H    3.872816   3.396299   2.471316   0.000000
    20  H    3.396347   3.872739   4.280358   2.471372   0.000000
    21  H    2.146686   3.396299   4.942543   4.280548   2.471372
    22  H    1.070000   2.146600   4.280368   4.942543   4.280358
                   21         22
    21  H    0.000000
    22  H    2.471316   0.000000
 Stoichiometry    C12H10
 Framework group  C2[X(C12H10)]
 Deg. of freedom    31
 Full point group                 C2      NOp   2
 Largest Abelian subgroup         C2      NOp   2
 Largest concise Abelian subgroup C2      NOp   2
                         Standard orientation:                         
 ---------------------------------------------------------------------
 Center     Atomic      Atomic             Coordinates (Angstroms)
 Number     Number       Type             X           Y           Z
 ---------------------------------------------------------------------
      1          6           0       -2.872051   -1.200558   -0.177747
      2          6           0       -1.470651   -1.200622   -0.177611
      3          6           0       -0.770000    0.000000   -0.000002
      4          6           0       -1.470651    1.200621    0.177608
      5          6           0       -2.872051    1.200557    0.177749
      6          6           0       -3.572739   -0.000001    0.000003
      7          1           0       -3.407058   -2.116213   -0.320027
      8          1           0       -0.935843   -2.112673   -0.342057
      9          1           0       -0.935843    2.112673    0.342052
     10          1           0       -3.407058    2.116211    0.320031
     11          1           0       -4.642739   -0.000001    0.000005
     12          6           0        1.470651   -1.200621    0.177608
     13          6           0        2.872051   -1.200557    0.177749
     14          6           0        3.572739    0.000001    0.000003
     15          6           0        2.872051    1.200558   -0.177747
     16          6           0        1.470651    1.200622   -0.177611
     17          6           0        0.770000    0.000000   -0.000002
     18          1           0        0.935843   -2.112673    0.342052
     19          1           0        3.407058   -2.116211    0.320031
     20          1           0        4.642739    0.000001    0.000005
     21          1           0        3.407058    2.116213   -0.320027
     22          1           0        0.935843    2.112673   -0.342057
 ---------------------------------------------------------------------
 Rotational constants (GHZ):      2.8338284      0.5505115      0.4642789
 Standard basis: 6-31G(d) (6D, 7F)
 There are   100 symmetry adapted cartesian basis functions of A   symmetry.
 There are   100 symmetry adapted cartesian basis functions of B   symmetry.
 There are   100 symmetry adapted basis functions of A   symmetry.
 There are   100 symmetry adapted basis functions of B   symmetry.
   200 basis functions,   376 primitive gaussians,   200 cartesian basis functions
    41 alpha electrons       41 beta electrons
       nuclear repulsion energy       597.6958580133 Hartrees.
 NAtoms=   22 NActive=   22 NUniq=   11 SFac= 4.00D+00 NAtFMM=   60 NAOKFM=F Big=F
 Integral buffers will be    131072 words long.
 Raffenetti 1 integral format.
 Two-electron integral symmetry is turned on.
 One-electron integrals computed using PRISM.
 NBasis=   200 RedAO= T EigKep=  3.21D-04  NBF=   100   100
 NBsUse=   200 1.00D-06 EigRej= -1.00D+00 NBFU=   100   100
 Initial guess from the checkpoint file:  "diphenyl.chk"
 B after Tr=     0.000000    0.000000    0.000000
         Rot=    0.707107    0.000000    0.000000   -0.707107 Ang= -90.00 deg.
 Initial guess orbital symmetries:
       Occupied  (A) (B) (B) (A) (A) (B) (B) (A) (A) (B) (B) (A)
                 (A) (B) (A) (B) (A) (B) (B) (A) (A) (B) (A) (B)
                 (A) (B) (B) (B) (A) (A) (A) (A) (B) (B) (B) (A)
                 (A) (A) (B) (A) (B)
       Virtual   (A) (A) (A) (A) (A) (A) (A) (A) (A) (A) (A) (A)
                 (A) (A) (A) (A) (A) (A) (A) (A) (A) (A) (A) (A)
                 (A) (A) (A) (A) (A) (A) (A) (A) (A) (A) (A) (A)
                 (A) (A) (A) (A) (A) (A) (A) (A) (A) (A) (A) (A)
                 (A) (A) (A) (A) (A) (A) (A) (A) (A) (A) (A) (A)
                 (A) (A) (A) (A) (A) (A) (A) (A) (A) (A) (A) (A)
                 (A) (A) (A) (A) (A) (A) (A) (B) (B) (B) (B) (B)
                 (B) (B) (B) (B) (B) (B) (B) (B) (B) (B) (B) (B)
                 (B) (B) (B) (B) (B) (B) (B) (B) (B) (B) (B) (B)
                 (B) (B) (B) (B) (B) (B) (B) (B) (B) (B) (B) (B)
                 (B) (B) (B) (B) (B) (B) (B) (B) (B) (B) (B) (B)
                 (B) (B) (B) (B) (B) (B) (B) (B) (B) (B) (B) (B)
                 (B) (B) (B) (B) (B) (B) (B) (B) (B) (B) (B) (B)
                 (B) (B) (B)
 ExpMin= 1.61D-01 ExpMax= 3.05D+03 ExpMxC= 4.57D+02 IAcc=1 IRadAn=         1 AccDes= 0.00D+00
 Harris functional with IExCor=  205 and IRadAn=       1 diagonalized for initial guess.
 HarFok:  IExCor=  205 AccDes= 0.00D+00 IRadAn=         1 IDoV= 1 UseB2=F ITyADJ=14
 ICtDFT=  3500011 ScaDFX=  1.000000  1.000000  1.000000  1.000000
 FoFCou: FMM=F IPFlag=           0 FMFlag=      100000 FMFlg1=           0
         NFxFlg=           0 DoJE=T BraDBF=F KetDBF=T FulRan=T
         wScrn=  0.000000 ICntrl=     500 IOpCl=  0 I1Cent=   200000004 NGrid=           0
         NMat0=    1 NMatS0=      1 NMatT0=    0 NMatD0=    1 NMtDS0=    0 NMtDT0=    0
 Petite list used in FoFCou.
 Requested convergence on RMS density matrix=1.00D-08 within 128 cycles.
 Requested convergence on MAX density matrix=1.00D-06.
 Requested convergence on             energy=1.00D-06.
 No special actions if energy rises.
 Integral accuracy reduced to 1.0D-05 until final iterations.
 Initial convergence to 1.0D-05 achieved.  Increase integral accuracy.
 SCF Done:  E(RHF) =  -460.245511431     A.U. after   15 cycles
            NFock= 15  Conv=0.35D-08     -V/T= 2.0018
 Calling FoFJK, ICntrl=      2127 FMM=F ISym2X=1 I1Cent= 0 IOpClX= 0 NMat=1 NMatS=1 NMatT=0.
 ***** Axes restored to original set *****
 -------------------------------------------------------------------
 Center     Atomic                   Forces (Hartrees/Bohr)
 Number     Number              X              Y              Z
 -------------------------------------------------------------------
      1        6           0.010367056    0.018628183    0.003410955
      2        6          -0.019155856    0.014840586    0.000467006
      3        6           0.024233870    0.001823304    0.000096678
      4        6          -0.016715354   -0.017539485   -0.000610041
      5        6           0.013064362   -0.016865293   -0.003317165
      6        6           0.018093826    0.001361383    0.000071999
      7        1          -0.001595099   -0.003558631   -0.000643274
      8        1          -0.001897821   -0.002100135   -0.000739676
      9        1          -0.002196507    0.001792093    0.000723273
     10        1          -0.002114660    0.003279521    0.000628412
     11        1          -0.003923389   -0.000295190   -0.000015650
     12        6           0.016715205    0.017534863    0.000734335
     13        6          -0.013057904    0.017066255   -0.002086463
     14        6          -0.018093825   -0.001361364   -0.000072510
     15        6          -0.010373514   -0.018829161    0.001993121
     16        6           0.019156004   -0.014835979   -0.000590883
     17        6          -0.024233870   -0.001823297   -0.000096865
     18        1           0.002194933   -0.001841061    0.000593404
     19        1           0.002113445   -0.003317326    0.000388127
     20        1           0.003923389    0.000295188    0.000015685
     21        1           0.001596314    0.003596440   -0.000373362
     22        1           0.001899395    0.002149107   -0.000577107
 -------------------------------------------------------------------
 Cartesian Forces:  Max     0.024233870 RMS     0.009677775

 GradGradGradGradGradGradGradGradGradGradGradGradGradGradGradGradGradGrad
 Berny optimization.
 Using GEDIIS/GDIIS optimizer.
 FormGI is forming the generalized inverse of G from B-inverse, IUseBI=4.
 Internal  Forces:  Max     0.018468660 RMS     0.005954904
 Search for a local minimum.
 Step number   2 out of a maximum of  121
 All quantities printed in internal units (Hartrees-Bohrs-Radians)
 Mixed Optimization -- RFO/linear search
 Update second derivatives using D2CorX and points    1    2
 ITU=  0  0
 Use linear search instead of GDIIS.
     Eigenvalues ---   -0.01227   0.01559   0.01719   0.01864   0.02017
     Eigenvalues ---    0.02105   0.02117   0.02596   0.02686   0.02810
     Eigenvalues ---    0.02835   0.02858   0.03035   0.03174   0.03192
     Eigenvalues ---    0.03217   0.03246   0.03269   0.03298   0.11854
     Eigenvalues ---    0.12213   0.12630   0.13114   0.13564   0.13998
     Eigenvalues ---    0.14199   0.14252   0.14452   0.15331   0.19391
     Eigenvalues ---    0.20483   0.21492   0.21581   0.21636   0.21707
     Eigenvalues ---    0.21835   0.21867   0.24706   0.32794   0.39541
     Eigenvalues ---    0.40925   0.41095   0.41202   0.41239   0.41240
     Eigenvalues ---    0.41312   0.41451   0.41452   0.42188   0.43796
     Eigenvalues ---    0.44029   0.44141   0.49201   0.49638   0.49750
     Eigenvalues ---    0.49950   0.50118   0.53589   0.54417   0.72383
 RFO step:  Lambda=-1.70540650D-02 EMin=-1.22731407D-02
 Skip linear search -- no minimum in search direction.
 Iteration  1 RMS(Cart)=  0.13261764 RMS(Int)=  0.03289511
 Iteration  2 RMS(Cart)=  0.10843790 RMS(Int)=  0.00287366
 Iteration  3 RMS(Cart)=  0.00472376 RMS(Int)=  0.00005695
 Iteration  4 RMS(Cart)=  0.00000702 RMS(Int)=  0.00005682
 Iteration  5 RMS(Cart)=  0.00000000 RMS(Int)=  0.00005682
 ClnCor:  largest displacement from symmetrization is 3.58D-08 for atom    19.
 Variable       Old X    -DE/DX   Delta X   Delta X   Delta X     New X
                                 (Linear)    (Quad)   (Total)
    R1        2.64826  -0.01699   0.00000  -0.03320  -0.03320   2.61506
    R2        2.64824  -0.01847   0.00000  -0.03150  -0.03154   2.61670
    R3        2.02201   0.00395   0.00000   0.00991   0.00991   2.03192
    R4        2.64828  -0.00836   0.00000  -0.01310  -0.01305   2.63523
    R5        2.02201   0.00076   0.00000   0.00816   0.00816   2.03017
    R6        2.64828  -0.00836   0.00000  -0.01310  -0.01305   2.63523
    R7        2.91018  -0.01821   0.00000  -0.09789  -0.09789   2.81228
    R8        2.64826  -0.01699   0.00000  -0.03320  -0.03320   2.61506
    R9        2.02201   0.00076   0.00000   0.00816   0.00816   2.03017
   R10        2.64824  -0.01847   0.00000  -0.03150  -0.03154   2.61670
   R11        2.02201   0.00395   0.00000   0.00991   0.00991   2.03192
   R12        2.02201   0.00393   0.00000   0.00943   0.00943   2.03144
   R13        2.64826  -0.01699   0.00000  -0.03320  -0.03320   2.61506
   R14        2.64828  -0.00836   0.00000  -0.01310  -0.01305   2.63523
   R15        2.02201   0.00076   0.00000   0.00816   0.00816   2.03017
   R16        2.64824  -0.01847   0.00000  -0.03150  -0.03154   2.61670
   R17        2.02201   0.00395   0.00000   0.00991   0.00991   2.03192
   R18        2.64824  -0.01847   0.00000  -0.03150  -0.03154   2.61670
   R19        2.02201   0.00393   0.00000   0.00943   0.00943   2.03144
   R20        2.64826  -0.01699   0.00000  -0.03320  -0.03320   2.61506
   R21        2.02201   0.00395   0.00000   0.00991   0.00991   2.03192
   R22        2.64828  -0.00836   0.00000  -0.01310  -0.01305   2.63523
   R23        2.02201   0.00076   0.00000   0.00816   0.00816   2.03017
    A1        2.09442   0.00211   0.00000   0.00592   0.00590   2.10032
    A2        2.09437  -0.00119   0.00000  -0.00703  -0.00704   2.08734
    A3        2.09437  -0.00092   0.00000   0.00107   0.00107   2.09544
    A4        2.09432   0.00490   0.00000   0.01831   0.01829   2.11261
    A5        2.09422  -0.00529   0.00000  -0.01555  -0.01569   2.07852
    A6        2.09422   0.00038   0.00000  -0.00350  -0.00365   2.09056
    A7        2.09448  -0.01172   0.00000  -0.03644  -0.03631   2.05817
    A8        2.09435   0.00586   0.00000   0.01822   0.01815   2.11251
    A9        2.09435   0.00586   0.00000   0.01822   0.01815   2.11251
   A10        2.09432   0.00490   0.00000   0.01831   0.01829   2.11261
   A11        2.09422   0.00038   0.00000  -0.00350  -0.00365   2.09056
   A12        2.09422  -0.00529   0.00000  -0.01555  -0.01569   2.07852
   A13        2.09442   0.00211   0.00000   0.00592   0.00590   2.10032
   A14        2.09437  -0.00119   0.00000  -0.00703  -0.00704   2.08734
   A15        2.09437  -0.00092   0.00000   0.00107   0.00107   2.09544
   A16        2.09441  -0.00232   0.00000  -0.01201  -0.01206   2.08234
   A17        2.09439   0.00116   0.00000   0.00600   0.00603   2.10042
   A18        2.09439   0.00116   0.00000   0.00600   0.00603   2.10042
   A19        2.09432   0.00490   0.00000   0.01831   0.01829   2.11261
   A20        2.09422  -0.00529   0.00000  -0.01555  -0.01569   2.07852
   A21        2.09422   0.00038   0.00000  -0.00350  -0.00365   2.09056
   A22        2.09442   0.00211   0.00000   0.00592   0.00590   2.10032
   A23        2.09437  -0.00119   0.00000  -0.00703  -0.00704   2.08734
   A24        2.09437  -0.00092   0.00000   0.00107   0.00107   2.09544
   A25        2.09441  -0.00232   0.00000  -0.01201  -0.01206   2.08234
   A26        2.09439   0.00116   0.00000   0.00600   0.00603   2.10042
   A27        2.09439   0.00116   0.00000   0.00600   0.00603   2.10042
   A28        2.09442   0.00211   0.00000   0.00592   0.00590   2.10032
   A29        2.09437  -0.00092   0.00000   0.00107   0.00107   2.09544
   A30        2.09437  -0.00119   0.00000  -0.00703  -0.00704   2.08734
   A31        2.09432   0.00490   0.00000   0.01831   0.01829   2.11261
   A32        2.09422  -0.00529   0.00000  -0.01555  -0.01569   2.07852
   A33        2.09422   0.00038   0.00000  -0.00350  -0.00365   2.09056
   A34        2.09435   0.00586   0.00000   0.01822   0.01815   2.11251
   A35        2.09435   0.00586   0.00000   0.01822   0.01815   2.11251
   A36        2.09448  -0.01172   0.00000  -0.03644  -0.03631   2.05817
    D1       -0.00024   0.00005   0.00000   0.00076   0.00078   0.00054
    D2       -3.11019   0.00010   0.00000   0.02808   0.02798  -3.08221
    D3        3.13431   0.00001   0.00000  -0.00632  -0.00627   3.12804
    D4        0.02435   0.00007   0.00000   0.02100   0.02094   0.04529
    D5        0.00012  -0.00002   0.00000  -0.00038  -0.00039  -0.00026
    D6       -3.14147  -0.00002   0.00000  -0.00038  -0.00039   3.14133
    D7       -3.13442   0.00001   0.00000   0.00673   0.00672  -3.12770
    D8        0.00717   0.00001   0.00000   0.00673   0.00673   0.01389
    D9        0.00012  -0.00002   0.00000  -0.00038  -0.00039  -0.00027
   D10       -3.14147  -0.00002   0.00000  -0.00038  -0.00039   3.14132
   D11        3.11007  -0.00018   0.00000  -0.02792  -0.02799   3.08208
   D12       -0.03152  -0.00018   0.00000  -0.02792  -0.02799  -0.05951
   D13        0.00012  -0.00002   0.00000  -0.00038  -0.00039  -0.00027
   D14        3.11007  -0.00018   0.00000  -0.02792  -0.02799   3.08208
   D15       -3.14147  -0.00002   0.00000  -0.00038  -0.00039   3.14133
   D16       -0.03152  -0.00018   0.00000  -0.02792  -0.02799  -0.05951
   D17       -0.29373  -0.00339   0.00000  -0.37270  -0.37270  -0.66643
   D18        2.84786  -0.00339   0.00000  -0.37270  -0.37270   2.47516
   D19        2.84786  -0.00339   0.00000  -0.37270  -0.37270   2.47516
   D20       -0.29373  -0.00339   0.00000  -0.37270  -0.37270  -0.66643
   D21       -0.00024   0.00005   0.00000   0.00076   0.00078   0.00054
   D22        3.13430   0.00001   0.00000  -0.00632  -0.00627   3.12804
   D23       -3.11019   0.00010   0.00000   0.02808   0.02798  -3.08221
   D24        0.02435   0.00007   0.00000   0.02100   0.02094   0.04529
   D25        0.00012  -0.00002   0.00000  -0.00038  -0.00038  -0.00027
   D26       -3.14147  -0.00002   0.00000  -0.00038  -0.00039   3.14133
   D27       -3.13443   0.00001   0.00000   0.00673   0.00673  -3.12770
   D28        0.00717   0.00001   0.00000   0.00673   0.00672   0.01389
   D29       -0.00024   0.00005   0.00000   0.00076   0.00078   0.00054
   D30        3.13430   0.00001   0.00000  -0.00632  -0.00627   3.12804
   D31       -3.11019   0.00010   0.00000   0.02808   0.02798  -3.08221
   D32        0.02435   0.00007   0.00000   0.02100   0.02094   0.04529
   D33       -3.14147  -0.00002   0.00000  -0.00038  -0.00039   3.14133
   D34        0.00012  -0.00002   0.00000  -0.00038  -0.00039  -0.00027
   D35       -0.03152  -0.00018   0.00000  -0.02792  -0.02799  -0.05951
   D36        3.11007  -0.00018   0.00000  -0.02792  -0.02799   3.08208
   D37        0.00012  -0.00002   0.00000  -0.00038  -0.00038  -0.00027
   D38       -3.14147  -0.00002   0.00000  -0.00038  -0.00039   3.14133
   D39       -3.13443   0.00001   0.00000   0.00673   0.00673  -3.12770
   D40        0.00717   0.00001   0.00000   0.00673   0.00672   0.01389
   D41        0.00012  -0.00002   0.00000  -0.00038  -0.00039  -0.00026
   D42       -3.13442   0.00001   0.00000   0.00673   0.00672  -3.12770
   D43       -3.14147  -0.00002   0.00000  -0.00038  -0.00039   3.14133
   D44        0.00717   0.00001   0.00000   0.00673   0.00673   0.01389
   D45       -0.00024   0.00005   0.00000   0.00076   0.00078   0.00054
   D46       -3.11019   0.00010   0.00000   0.02808   0.02798  -3.08221
   D47        3.13431   0.00001   0.00000  -0.00632  -0.00627   3.12804
   D48        0.02435   0.00007   0.00000   0.02100   0.02094   0.04529
   D49       -3.14147  -0.00002   0.00000  -0.00038  -0.00039   3.14132
   D50        0.00012  -0.00002   0.00000  -0.00038  -0.00039  -0.00027
   D51       -0.03152  -0.00018   0.00000  -0.02792  -0.02799  -0.05951
[...]
 003354,-0.00004187,-0.00016619,0.00013746,-0.00105800,0.00014656,-0.00
 044339,0.00008556,-0.00019123,0.00002866,-0.00002717,-0.00000988,-0.00
 003969,-0.00001680,0.05095865,0.72825363,0.00097305,0.00036711,0.00011
 271,-0.00090719,-0.00106229,-0.00096167,0.00043215,-0.00054254,0.00543
 231,0.00201316,-0.00066864,0.00026321,-0.00030820,-0.00010637,-0.00027
 105,-0.00021231,0.00054003,0.00041164,0.00010544,0.00003248,-0.0000841
 0,-0.00064469,0.00059848,0.00036260,-0.00000450,0.00031646,0.00019989,
 0.00006337,-0.00000285,-0.00003511,-0.00001617,0.00007097,0.00001285,-
 0.00123507,-0.21612556,0.24987477,0.00032708,-0.00021133,-0.00078407,0
 .00023075,-0.00043691,0.00098687,0.00253805,0.00310907,-0.00014948,-0.
 00104585,0.00065251,0.00035579,0.00003478,-0.00003715,-0.00038254,-0.0
 0004993,0.00019170,-0.00000187,0.00000790,0.00003293,-0.00002644,-0.00
 017261,-0.00086843,0.00016203,0.00015297,-0.00069514,0.00002967,0.0000
 0571,-0.00001393,0.00001096,0.00003064,-0.00014491,0.00016885,-0.36996
 438,-0.06777074,0.01507180,0.77577093,0.00029297,0.00018346,-0.0003657
 5,-0.00030363,-0.00027264,-0.00024365,0.00290474,-0.00367292,0.0046468
 7,0.00012354,0.00039434,0.00015620,-0.00006321,0.00010858,-0.00094171,
 -0.00010273,0.00014860,0.00010093,0.00000975,-0.00000675,-0.00000711,-
 0.00006806,-0.00008364,0.00053277,0.00007141,-0.00046563,0.00038459,0.
 00004595,0.00001546,0.00002875,-0.00001923,-0.00006389,0.00014588,0.03
 481148,-0.15545069,0.03142779,-0.03544273,0.73484997,-0.00081233,0.000
 25729,0.00001819,0.00153582,-0.00010586,0.00007462,-0.00069851,0.00451
 119,0.00593507,-0.00193830,-0.00016738,-0.00027950,0.00037782,0.000916
 51,0.00044518,0.00035367,-0.00060692,-0.00027290,0.00003375,0.00000637
 ,0.00002722,0.00006633,0.00022030,-0.00005608,-0.00000107,0.00007034,-
 0.00004573,-0.00010429,-0.00003339,0.00001161,0.00000160,0.00001227,-0
 .00003912,-0.02314434,0.02841174,-0.08818202,0.03449652,-0.21702486,0.
 24942546,-0.00003081,0.00005561,0.00026228,-0.00034112,0.00072934,-0.0
 0007134,-0.00045290,0.00005836,0.00007129,-0.00028381,-0.00076252,0.00
 015449,-0.00004910,-0.00007599,-0.00035983,-0.00025587,-0.00000236,0.0
 0000170,-0.00007204,-0.00004874,-0.00000376,0.00000079,-0.00003973,-0.
 00005977,0.00002572,-0.00006547,0.00008727,-0.00007759,0.00003946,0.00
 000063,-0.00003927,-0.00001328,0.00001344,-0.01533372,-0.03569154,0.01
 337941,-0.20645033,-0.12850637,0.04383147,0.85000546,-0.00021575,0.000
 08809,0.00068102,-0.00038077,-0.00007015,-0.00059927,0.00006276,-0.001
 23254,-0.00093834,0.00035317,-0.00012749,-0.00057937,0.00018953,0.0001
 0879,0.00063583,-0.00000214,-0.00022573,-0.00003500,0.00000320,-0.0000
 1654,0.00001675,0.00010426,0.00073781,-0.00018743,-0.00021047,0.000712
 05,-0.00017763,-0.00001257,-0.00001106,0.00001702,-0.00001276,0.000139
 11,-0.00018397,-0.11927093,0.04465372,-0.01663003,-0.02630219,-0.30021
 266,0.08278087,0.01419445,0.67255471,-0.00000399,-0.00007371,-0.000231
 52,0.00009677,0.00011953,0.00037885,-0.00001164,0.00016395,-0.00062209
 ,-0.00011862,0.00009735,0.00037889,0.00001653,-0.00007268,-0.00023392,
 -0.00000242,0.00001977,-0.00002134,-0.00000767,0.00000521,-0.00000070,
 -0.00000676,-0.00031285,0.00000492,0.00005354,-0.00030842,0.00000575,0
 .00000619,0.00000660,-0.00000063,0.00000368,-0.00005423,0.00005994,0.0
 4453879,-0.01484725,0.01624742,0.00472732,0.07908723,-0.10682004,0.016
 74152,-0.18983465,0.23540149,0.00002154,0.00001693,0.00051579,-0.00091
 119,-0.00084894,-0.00038068,0.00329310,-0.00209138,-0.00056975,0.00012
 931,0.00049801,-0.00093857,0.00032326,0.00023091,0.00083253,-0.0000301
 8,-0.00021388,-0.00001146,0.00000993,0.00001336,-0.00001514,0.00004760
 ,0.00077216,-0.00008568,-0.00030646,0.00083277,-0.00024141,0.00001394,
 -0.00002983,0.00002708,0.00000577,0.00015524,-0.00018833,-0.09888446,0
 .04176005,-0.01852868,0.10792818,0.05423005,-0.01735683,-0.23087149,0.
 03611928,-0.01747158,0.76436096,0.00005729,0.00012179,-0.00087363,-0.0
 0032119,0.00024716,0.00009897,-0.00188780,-0.00442905,0.00459589,0.000
 36550,-0.00015138,-0.00038582,-0.00026841,0.00017452,-0.00024636,0.000
 07471,0.00013133,0.00010091,-0.00004695,0.00001050,0.00002642,0.000003
 17,-0.00035977,0.00037567,0.00002999,0.00005249,0.00050284,-0.00000658
 ,-0.00001273,-0.00000315,0.00002859,-0.00003757,0.00011920,0.04320105,
 -0.02245303,0.00621115,-0.02899310,-0.06026551,0.02544294,0.13832618,-
 0.27530207,0.07848989,0.04165209,0.74651543,-0.00051404,0.00084963,0.0
 0044521,0.00193632,0.00011810,-0.00026697,-0.00000647,0.00454226,0.005
 93615,-0.00150204,-0.00033066,0.00005481,0.00076695,0.00037788,0.00003
 095,-0.00025690,-0.00065448,-0.00027538,0.00010807,-0.00001730,0.00001
 236,-0.00000873,0.00007566,-0.00004622,-0.00010052,0.00021458,-0.00005
 835,-0.00003443,0.00000099,0.00002716,-0.00000305,0.00001312,-0.000040
 57,-0.01929653,0.00656105,-0.01133606,0.01419674,0.02814929,-0.0003220
 9,-0.05662711,0.07547918,-0.10730945,0.00247978,-0.21912244,0.24916994
 ,-0.00090737,-0.00017623,-0.00195633,-0.00372426,0.00314976,0.00215043
 ,-0.02019583,-0.03503921,0.01140875,-0.00045120,-0.00231797,0.00073818
 ,0.00023684,-0.00018928,-0.00155379,-0.00034109,-0.00037386,-0.0001265
 9,-0.00051750,-0.00004799,-0.00010661,0.00025649,-0.00112646,0.0005706
 7,-0.00042030,-0.00056585,0.00099367,-0.00009748,0.00008437,0.00007804
 ,-0.00008138,-0.00015184,0.00026679,0.10454532,-0.02719950,0.01320809,
 -0.08488072,-0.05268616,0.01748201,-0.03649606,0.10709482,-0.04217065,
 -0.37001225,-0.06752245,0.01635398,0.78555848,-0.00087458,0.00026049,-
 0.00008074,0.00329873,0.00211984,0.00108209,-0.01103722,0.00417990,0.0
 0041516,0.00253475,-0.00232429,0.00096679,-0.00036263,-0.00029656,0.00
 007748,0.00072242,-0.00010324,-0.00015370,0.00010876,0.00005034,-0.000
 04211,-0.00004136,-0.00063591,0.00017211,0.00009061,0.00007803,-0.0009
 1816,0.00002725,-0.00001519,-0.00003027,0.00000371,-0.00006112,0.00002
 350,0.05154183,-0.05774856,0.02828745,-0.05124844,-0.03674439,0.008952
 58,0.02352253,0.06625991,-0.02112826,0.03505762,-0.15541322,0.03179414
 ,-0.04052637,0.71441077,0.00031507,-0.00006014,-0.00028413,-0.00192014
 ,-0.00093624,0.00026535,-0.00055623,-0.00088013,0.00552006,0.00106149,
 -0.00093384,-0.00094739,-0.00101625,0.00021564,0.00009246,0.00012357,0
 .00056246,0.00041191,-0.00006600,-0.00001264,-0.00003649,-0.00004248,0
 .00030413,0.00020437,0.00054172,0.00068356,0.00037471,-0.00010920,0.00
 001705,-0.00008435,0.00000462,0.00007134,0.00001507,-0.01643203,0.0257
 4296,0.00012674,0.01677602,0.00848029,-0.01104843,-0.01114523,-0.01756
 492,0.01580358,-0.02182193,0.02824336,-0.08817162,0.03779023,-0.213558
 77,0.25018623,0.00329209,-0.00187100,-0.00013879,-0.02016569,-0.011044
 62,-0.00032644,-0.25968961,-0.01040012,-0.00059321,-0.02640992,0.00642
 294,-0.00003121,0.00253551,0.00285701,0.00090551,-0.00045277,0.0000595
 2,0.00001652,0.00019005,0.00024737,0.00009724,0.00067367,0.00211994,-0
 .00031087,0.00095764,-0.00204174,0.00002458,-0.00001583,-0.00024261,-0
 .00010821,0.00019305,0.00000819,-0.00001924,-0.21694164,0.12448211,-0.
 05511097,-0.03684864,0.02340057,-0.01050759,0.00021605,0.00801959,-0.0
 0277309,-0.01576807,-0.03570146,0.01303830,-0.19596432,-0.11515995,0.0
 4347362,0.74917760,-0.00211599,-0.00369462,-0.00526467,-0.03409460,0.0
 0415686,0.00069694,-0.01039945,-0.12216823,-0.00160394,0.02947054,0.01
 028893,0.00097486,0.00310123,-0.00294208,-0.00516504,0.00006392,-0.001
 28654,-0.00021329,-0.00157845,-0.00004676,0.00007600,-0.00014834,0.000
 33966,0.00210422,0.00022498,0.00005302,0.00213087,0.00158282,0.0001553
 9,0.00007323,0.00000860,0.00006298,0.00030705,0.02660568,-0.26106939,0
 .06846884,0.10646381,0.06666413,-0.01947951,0.00801644,-0.10776166,0.0
 3809557,-0.11875223,0.04515334,-0.01861364,-0.01729967,-0.28252161,0.0
 7570450,0.00542598,0.68597857,0.00040780,-0.00531776,0.00520273,-0.014
 04128,-0.00054211,0.00551296,-0.00060591,-0.00143517,-0.08170076,0.013
 72841,0.00161884,0.00562513,0.00037316,-0.00530126,0.00520677,-0.00006
 641,0.00088900,-0.00056822,-0.00057176,-0.00001729,0.00005393,-0.00029
 488,0.00191810,-0.00323325,0.00003797,0.00192644,-0.00323059,0.0005683
 0,0.00006659,0.00005766,-0.00002691,0.00040908,-0.00077443,-0.01588026
 ,0.06977685,-0.10743701,-0.04098962,-0.02053439,0.01500654,-0.00271373
 ,0.03730658,-0.02251564,0.04328538,-0.01443606,0.01543676,0.00454732,0
 .07035052,-0.10696210,0.01395457,-0.15929886,0.25648801,-0.00030735,0.
 00002365,0.00010198,-0.00041659,0.00012850,-0.00053548,0.00095792,0.00
 023158,-0.00001063,0.00006692,0.00014609,0.00001510,0.00015310,0.00007
 206,0.00000692,0.00002608,-0.00020640,-0.00006904,0.00001936,0.0000374
 2,-0.00004317,-0.00061033,0.00024268,-0.00055063,-0.00000110,-0.000034
 30,-0.00004056,0.00002605,-0.00002132,0.00001025,0.00002138,-0.0000041
 1,-0.00000577,-0.13014306,-0.11156257,0.04249378,-0.00813696,-0.032787
 07,0.01237331,-0.00681762,0.00061333,-0.00076748,-0.00098832,0.0007994
 4,-0.00029035,-0.00214922,0.00375783,-0.00174992,0.01385997,0.01724169
 ,-0.00651840,0.13317353,0.00081306,0.00010495,-0.00020048,-0.00048875,
 0.00006232,-0.00070795,-0.00203036,0.00033560,-0.00166568,0.00118379,-
 0.00041018,-0.00035907,-0.00069082,-0.00042956,-0.00010058,-0.00005961
 ,0.00067218,0.00035792,0.00000998,-0.00000714,-0.00003092,-0.00035151,
 0.00037139,0.00033588,-0.00003735,0.00008219,0.00005774,0.00002091,0.0
 0000200,0.00002194,-0.00002288,0.00001369,0.00004990,-0.11007245,-0.28
 547691,0.09172787,0.00121821,0.00306343,0.00060905,-0.00012687,0.00289
 096,0.00223767,0.00096027,0.00025630,-0.00018283,0.00425090,-0.0018957
 4,0.00364980,-0.01467404,-0.01771894,0.00847269,0.12132504,0.29915151,
 0.00030209,-0.00049065,-0.00010992,-0.00103480,0.00089529,0.00038670,-
 0.00016566,-0.00186469,-0.00351346,0.00067984,-0.00013071,0.00016822,-
 0.00008070,-0.00041300,-0.00008193,-0.00009192,0.00022679,0.00004527,-
 0.00005547,0.00001108,-0.00000007,-0.00052192,-0.00033738,-0.00069399,
 0.00003806,-0.00004662,-0.00006832,0.00002943,0.00000156,-0.00003219,0
 .00003500,-0.00003636,-0.00000779,0.04198789,0.09254415,-0.08183173,-0
 .00137138,-0.00069758,0.00505027,-0.00067065,0.00251134,0.00746656,-0.
 00007017,-0.00027867,-0.00037550,-0.00204486,0.00347940,0.00607622,0.0
 0694282,0.00881464,0.00162541,-0.04459862,-0.10224159,0.07110847,0.000
 01393,-0.00000912,0.00003382,-0.00009757,0.00001899,0.00011089,-0.0000
 1485,0.00162082,-0.00044932,-0.00049675,-0.00018603,-0.00007851,0.0000
 0549,0.00003815,0.00010740,-0.00007758,-0.00001203,-0.00000728,-0.0000
 3974,-0.00001867,-0.00001424,0.00002523,-0.00000091,-0.00005353,0.0000
 2615,0.00002308,-0.00002765,-0.00006036,0.00000896,0.00000539,-0.00002
 078,-0.00000144,-0.00000800,-0.01241769,0.03058785,-0.01244501,-0.1668
 9993,0.12916513,-0.05335556,0.01515588,-0.01373292,0.00555667,-0.00076
 224,-0.00357170,0.00099045,-0.00080573,-0.00100166,0.00037922,-0.00642
 214,-0.00210777,0.00015926,0.00114920,-0.00050590,0.00038970,0.1701726
 2,-0.00002773,-0.00001267,-0.00000403,0.00008997,-0.00001656,-0.000011
 79,-0.00024982,0.00016509,-0.00005914,-0.00002656,0.00002610,0.0000073
 6,-0.00001316,0.00001509,0.00003361,0.00003942,-0.00000925,-0.00000715
 ,0.00001219,0.00000956,0.00000517,-0.00002896,-0.00001386,-0.00002014,
 -0.00002050,0.00000355,0.00000105,0.00000934,-0.00000681,-0.00000298,0
 .00001276,0.00000136,-0.00000205,-0.00368721,0.00751799,-0.00115829,0.
 12937691,-0.25151896,0.08273820,0.02051027,-0.01655174,0.00889873,-0.0
 0438419,-0.00293506,0.00410127,-0.00088442,0.00006798,-0.00024682,-0.0
 0143988,0.00238782,0.00223766,0.00065122,0.00022970,-0.00199411,-0.140
 52299,0.26145963,-0.00002926,0.00000017,0.00002711,-0.00007159,0.00003
 537,-0.00008290,0.00008974,-0.00006136,0.00004699,-0.00011142,0.000031
 29,-0.00003299,-0.00001198,-0.00002840,0.00001221,0.00000212,-0.000017
 69,-0.00000245,-0.00001222,-0.00000648,0.00000055,-0.00004972,0.000023
 08,0.00000078,-0.00001166,-0.00001922,-0.00003383,-0.00000487,0.000002
 24,0.00000346,-0.00000563,0.00000321,-0.00001024,0.00064528,0.00027589
 ,0.00472743,-0.05319165,0.08311353,-0.08016756,-0.00743372,0.00707842,
 0.00195398,0.00094805,0.00419417,0.00662543,0.00055591,-0.00014552,-0.
 00038657,0.00024881,0.00212772,0.00771198,-0.00009442,-0.00211305,-0.0
 0422604,0.05850444,-0.09253119,0.06906216,0.00000530,0.00002857,0.0000
 0530,-0.00008072,0.00000411,-0.00000455,0.00019293,0.00000715,0.000029
 87,-0.00010128,-0.00001108,0.00001512,0.00003107,-0.00001871,-0.000002
 83,-0.00003923,-0.00001288,-0.00000489,-0.00001868,-0.00001537,-0.0000
 0619,0.00001739,0.00002093,0.00003065,0.00002146,-0.00002010,-0.000036
 53,-0.00002081,0.00001230,0.00000654,-0.00002106,-0.00000182,-0.000000
 54,0.00090107,-0.00297126,0.00088951,-0.00991188,0.00218172,-0.0012857
 8,-0.37675116,-0.02306913,-0.00201133,-0.01394917,-0.00505828,0.001312
 80,0.00005533,0.00359465,-0.00163460,0.00076752,0.00015787,-0.00001086
 ,-0.00066127,0.00007911,-0.00006582,0.00097048,-0.00050374,0.00037408,
 0.39845380,0.00014085,-0.00002780,-0.00001184,-0.00013142,-0.00005367,
 -0.00007678,0.00000755,0.00011141,-0.00034308,0.00012500,-0.00003540,-
 0.00007427,-0.00013195,-0.00005202,-0.00001354,-0.00001237,0.00012103,
 0.00005875,-0.00000100,-0.00000063,-0.00000331,0.00000474,0.00001839,0
 .00004311,-0.00000462,0.00001457,0.00003802,-0.00000202,0.00000138,-0.
 00000235,-0.00000187,0.00000332,0.00000559,-0.00211954,-0.00431192,0.0
 0471034,-0.03227352,0.00507550,-0.00130360,-0.02306854,-0.07237808,0.0
 0926535,0.02939706,0.00919359,-0.00086061,0.00274166,-0.00344738,0.004
 54009,0.00015867,-0.00134176,0.00022942,-0.00158039,-0.00000937,-0.000
 03842,0.00083397,0.00039539,-0.00195068,0.02519286,0.06616349,0.000199
 46,-0.00011820,-0.00004986,-0.00027755,-0.00002858,0.00000696,0.000022
 19,-0.00024106,-0.00082274,0.00027792,0.00001316,0.00000925,-0.0001789
 6,-0.00014687,-0.00005140,-0.00001466,0.00018849,0.00007798,-0.0000082
 7,0.00000162,-0.00001035,0.00000198,-0.00004838,-0.00000849,0.00000552
 ,-0.00004828,-0.00000875,0.00000785,0.00000294,-0.00001023,0.00000033,
 -0.00000602,0.00000895,0.00073281,0.00453430,0.00665937,0.01143713,-0.
 00019626,0.00500712,-0.00202239,0.00941231,-0.04938050,-0.01141198,-0.
 00194308,0.00492632,-0.00145384,0.00439626,0.00664057,-0.00002593,0.00
 042971,-0.00082357,0.00058003,0.00006067,0.00004301,-0.00009556,-0.002
 03561,-0.00410880,0.00237360,-0.01220782,0.03596463,0.00001015,-0.0000
 3873,-0.00011126,-0.00051791,0.00010349,0.00007273,0.00018903,-0.00161
 638,0.00045327,-0.00007930,-0.00002883,-0.00010786,0.00000791,0.000012
 22,-0.00003298,-0.00007206,0.00000267,0.00000772,-0.00005645,-0.000016
 49,-0.00000537,0.00002569,-0.00001956,0.00002765,0.00001912,0.00000575
 ,0.00005610,-0.00003980,0.00001126,0.00001300,-0.00001871,-0.00000162,
 0.00000815,-0.00105829,0.00083215,-0.00034286,-0.00196231,0.00368410,-
 0.00165898,0.01545205,0.01851470,-0.00670738,-0.13118048,-0.11159363,0
 .03990289,-0.00808438,-0.03294273,0.01235679,-0.00674045,0.00070887,-0
 .00060664,0.00008489,-0.00008073,0.00005915,0.00053880,0.00098457,-0.0
 0034637,0.00100359,-0.00072597,0.00043924,0.13133169,0.00001215,0.0000
 1118,0.00001725,-0.00005577,0.00004581,0.00001863,0.00025386,-0.000041
 73,0.00001072,-0.00009933,-0.00003451,-0.00002901,0.00003089,-0.000006
 62,-0.00000882,-0.00004887,-0.00001482,-0.00000638,-0.00001683,-0.0000
 1072,-0.00000390,0.00002385,0.00000368,0.00000539,0.00003414,-0.000008
 58,-0.00001164,-0.00001969,0.00000942,0.00000709,-0.00001578,-0.000000
 81,-0.00000095,0.00071561,0.00032776,-0.00029469,0.00449733,-0.0017141
 3,0.00393776,-0.01573409,-0.01685413,0.00783119,-0.11180252,-0.2879811
 1,0.08878094,0.00133482,0.00309141,0.00072649,0.00004007,0.00271289,0.
 00218604,-0.00006384,-0.00017773,-0.00037989,-0.00074525,-0.00106434,0
 .00037858,0.00061209,0.00036179,-0.00199093,0.12154320,0.30111405,0.00
 001609,-0.00002660,0.00001144,0.00010159,0.00004848,-0.00003153,-0.000
 07827,-0.00008699,0.00004992,0.00006546,0.00004548,-0.00008322,0.00002
 877,0.00000462,0.00002707,-0.00000003,-0.00001780,-0.00000240,0.000003
 99,0.00000280,0.00000345,0.00001489,-0.00001739,-0.00003350,0.00004587
 ,0.00003030,0.00000160,0.00001272,-0.00000448,0.00000076,0.00000501,0.
 00000401,-0.00001014,-0.00053279,-0.00022004,-0.00039379,-0.00163047,0
 .00402950,0.00660457,0.00638868,0.00824707,0.00196020,0.03968454,0.089
 12919,-0.07942485,-0.00078024,-0.00008636,0.00482071,-0.00067913,0.002
 06924,0.00770522,0.00006111,-0.00038672,-0.00102316,0.00029043,0.00043
 340,-0.00009712,-0.00003702,-0.00198785,-0.00410831,-0.04343313,-0.099
 14259,0.06824866,0.00004731,0.00000343,0.00000924,0.00025785,-0.000043
 92,0.00003948,0.00067202,-0.00016550,0.00029289,-0.00047122,-0.0002160
 5,0.00062844,-0.00017198,-0.00006166,-0.00007136,0.00000063,0.00010296
 ,0.00001441,0.00002579,0.00002490,-0.00001294,-0.00000984,0.00002077,0
 .00003194,-0.00061288,-0.00038861,0.00049459,0.00002498,-0.00003262,0.
 00004749,0.00001746,0.00000497,-0.00000156,-0.00097956,-0.00364633,0.0
 0112589,-0.00070347,-0.00094223,0.00031127,-0.00653305,-0.00205943,0.0
 0031160,-0.01246930,0.03043354,-0.01244610,-0.16552336,0.12893420,-0.0
 5632832,0.01355593,-0.01257593,0.00526447,0.00069341,-0.00071999,0.000
 30798,0.00005758,0.00010250,0.00000609,-0.00086466,0.00145086,-0.00058
 892,0.00114721,-0.00049607,0.00045191,0.17183913,0.00076386,-0.0003246
 8,-0.00009457,-0.00108016,-0.00059590,-0.00036633,0.00209488,0.0006177
 2,-0.00162628,0.00041421,0.00010464,-0.00061676,-0.00085346,-0.0000276
 2,-0.00022022,-0.00004487,0.00069670,0.00036427,-0.00001750,0.00000258
 ,0.00002004,0.00002294,0.00009091,0.00006344,0.00020020,0.00036541,0.0
 0041672,-0.00000483,-0.00001356,-0.00002416,0.00002303,0.00001785,0.00
 005040,-0.00414057,-0.00309079,0.00383230,-0.00110395,-0.00003166,-0.0
 0014590,-0.00131713,0.00259870,0.00231402,-0.00357283,0.00748407,-0.00
 127614,0.12745091,-0.24931146,0.08525183,0.01933345,-0.01740198,0.0094
 9510,0.00098947,-0.00111061,0.00046542,0.00011944,-0.00015000,-0.00039
 005,-0.00020898,0.00019817,-0.00002837,0.00066168,0.00023124,-0.002067
 28,-0.13972979,0.25965026,0.00014307,-0.00039641,-0.00008102,-0.000652
 56,-0.00023177,0.00016299,0.00047730,-0.00181782,-0.00350967,0.0008826
 3,0.00103819,0.00039900,-0.00022628,-0.00053078,-0.00011272,0.00005657
 ,0.00023920,0.00004619,-0.00002888,-0.00000264,-0.00003251,-0.00003017
 ,-0.00005153,-0.00006830,0.00056730,-0.00025795,-0.00068546,0.00005338
 ,0.00001899,0.00000073,-0.00002895,-0.00004114,-0.00000803,0.00144270,
 0.00371188,0.00610161,0.00010781,-0.00027232,-0.00037239,0.00017536,0.
 00256423,0.00747424,0.00131905,-0.00024140,0.00496197,-0.05595116,0.08
 614642,-0.08261688,-0.00807731,0.00756558,0.00161249,-0.00036801,0.000
 40774,-0.00000605,0.00000701,-0.00038314,-0.00102359,0.00006349,-0.000
 01653,0.00003886,-0.00004386,-0.00203131,-0.00422559,0.06011152,-0.095
 41750,0.07194412\\-0.00000006,0.00000453,0.00000163,0.00000567,0.00000
 578,0.00000631,-0.00007184,-0.00000540,-0.00000029,0.00000652,-0.00000
 486,-0.00000626,0.00000063,-0.00000449,-0.00000163,0.00000616,0.000000
 47,0.00000003,-0.00000094,-0.00000153,-0.00000093,0.00001584,-0.000004
 58,-0.00000222,0.00001496,0.00000690,0.00000234,-0.00000117,0.00000137
 ,0.00000092,-0.00000194,-0.00000015,0.,-0.00000651,0.00000532,-0.00000
 590,-0.00000063,0.00000460,-0.00000129,-0.00000616,-0.00000047,-0.0000
 0002,0.00000006,-0.00000464,0.00000129,-0.00000569,-0.00000623,0.00000
 585,0.00007184,0.00000540,0.00000029,-0.00001497,-0.00000705,0.0000017
 9,0.00000117,-0.00000143,0.00000082,0.00000194,0.00000015,0.,0.0000009
 4,0.00000159,-0.00000081,-0.00001584,0.00000473,-0.00000191\\\@


 RESEARCH IS WHAT I AM DOING WHEN I DON'T KNOW WHAT I AM DOING.
     -- WERNER VON BRAUN
 Job cpu time:       0 days  0 hours  4 minutes 12.8 seconds.
 File lengths (MBytes):  RWF=     61 Int=      0 D2E=      0 Chk=      4 Scr=      1
 Normal termination of Gaussian 09 at Mon Feb  1 14:46:45 2016.
