Title Card Required                                                     
Freq      RHF                                                         6-31G(d)            
Number of atoms                            I               22
Info1-9                                    I   N=           9
          54          54        1002           0           0         100
           6           1           2
Charge                                     I                0
Multiplicity                               I                1
Number of electrons                        I               82
Number of alpha electrons                  I               41
Number of beta electrons                   I               41
Number of basis functions                  I              200
Number of independent functions            I              200
Number of point charges in /Mol/           I                0
Number of translation vectors              I                0
Atomic numbers                             I   N=          22
           6           6           6           6           6           6
           1           1           1           1           1           6
           6           6           6           6           6           1
           1           1           1           1
Nuclear charges                            R   N=          22
  6.00000000E+00  6.00000000E+00  6.00000000E+00  6.00000000E+00  6.00000000E+00
  6.00000000E+00  1.00000000E+00  1.00000000E+00  1.00000000E+00  1.00000000E+00
  1.00000000E+00  6.00000000E+00  6.00000000E+00  6.00000000E+00  6.00000000E+00
  6.00000000E+00  6.00000000E+00  1.00000000E+00  1.00000000E+00  1.00000000E+00
  1.00000000E+00  1.00000000E+00
Current cartesian coordinates              R   N=          66
  2.08557866E+00 -5.37458771E+00 -8.73089143E-01  2.08440564E+00 -2.75793354E+00
 -8.73212573E-01  3.57976452E-16 -1.40896303E+00  2.85258789E-08 -2.08440563E+00
 -2.75793357E+00  8.73212601E-01 -2.08557865E+00 -5.37458773E+00  8.73089120E-01
  7.27716498E-16 -6.69398972E+00 -2.39734891E-08  3.70969300E+00 -6.38014223E+00
 -1.56762750E+00  3.69849271E+00 -1.75407470E+00 -1.59118301E+00 -3.69849271E+00
 -1.75407474E+00  1.59118304E+00 -3.70969298E+00 -6.38014227E+00  1.56762745E+00
  1.07010754E-15 -8.72610673E+00 -4.46728749E-08  2.08440563E+00  2.75793357E+00
  8.73212601E-01  2.08557865E+00  5.37458773E+00  8.73089120E-01 -2.33753988E-15
  6.69398972E+00 -2.39734891E-08 -2.08557866E+00  5.37458771E+00 -8.73089143E-01
 -2.08440564E+00  2.75793354E+00 -8.73212573E-01 -6.46021864E-16  1.40896303E+00
  2.85258789E-08  3.69849271E+00  1.75407474E+00  1.59118304E+00  3.70969298E+00
  6.38014227E+00  1.56762745E+00 -3.13442848E-15  8.72610673E+00 -4.46728749E-08
 -3.70969300E+00  6.38014223E+00 -1.56762750E+00 -3.69849271E+00  1.75407470E+00
 -1.59118301E+00
Force Field                                I                0
Int Atom Types                             I   N=          22
           0           0           0           0           0           0
           0           0           0           0           0           0
           0           0           0           0           0           0
           0           0           0           0
MM charges                                 R   N=          22
  0.00000000E+00  0.00000000E+00  0.00000000E+00  0.00000000E+00  0.00000000E+00
  0.00000000E+00  0.00000000E+00  0.00000000E+00  0.00000000E+00  0.00000000E+00
  0.00000000E+00  0.00000000E+00  0.00000000E+00  0.00000000E+00  0.00000000E+00
  0.00000000E+00  0.00000000E+00  0.00000000E+00  0.00000000E+00  0.00000000E+00
  0.00000000E+00  0.00000000E+00
Integer atomic weights                     I   N=          22
          12          12          12          12          12          12
           1           1           1           1           1          12
          12          12          12          12          12           1
           1           1           1           1
Real atomic weights                        R   N=          22
  1.20000000E+01  1.20000000E+01  1.20000000E+01  1.20000000E+01  1.20000000E+01
  1.20000000E+01  1.00782504E+00  1.00782504E+00  1.00782504E+00  1.00782504E+00
  1.00782504E+00  1.20000000E+01  1.20000000E+01  1.20000000E+01  1.20000000E+01
  1.20000000E+01  1.20000000E+01  1.00782504E+00  1.00782504E+00  1.00782504E+00
  1.00782504E+00  1.00782504E+00
Atom fragment info                         I   N=          22
           0           0           0           0           0           0
           0           0           0           0           0           0
           0           0           0           0           0           0
           0           0           0           0
Atom residue num                           I   N=          22
           0           0           0           0           0           0
           0           0           0           0           0           0
           0           0           0           0           0           0
           0           0           0           0
Nuclear spins                              I   N=          22
           0           0           0           0           0           0
           1           1           1           1           1           0
           0           0           0           0           0           1
           1           1           1           1
Nuclear ZEff                               R   N=          22
 -3.60000000E+00 -3.60000000E+00 -3.60000000E+00 -3.60000000E+00 -3.60000000E+00
 -3.60000000E+00 -1.00000000E+00 -1.00000000E+00 -1.00000000E+00 -1.00000000E+00
 -1.00000000E+00 -3.60000000E+00 -3.60000000E+00 -3.60000000E+00 -3.60000000E+00
 -3.60000000E+00 -3.60000000E+00 -1.00000000E+00 -1.00000000E+00 -1.00000000E+00
 -1.00000000E+00 -1.00000000E+00
Nuclear ZNuc                               R   N=          22
  6.00000000E+00  6.00000000E+00  6.00000000E+00  6.00000000E+00  6.00000000E+00
  6.00000000E+00  1.00000000E+00  1.00000000E+00  1.00000000E+00  1.00000000E+00
  1.00000000E+00  6.00000000E+00  6.00000000E+00  6.00000000E+00  6.00000000E+00
  6.00000000E+00  6.00000000E+00  1.00000000E+00  1.00000000E+00  1.00000000E+00
  1.00000000E+00  1.00000000E+00
Nuclear QMom                               R   N=          22
  0.00000000E+00  0.00000000E+00  0.00000000E+00  0.00000000E+00  0.00000000E+00
  0.00000000E+00  0.00000000E+00  0.00000000E+00  0.00000000E+00  0.00000000E+00
  0.00000000E+00  0.00000000E+00  0.00000000E+00  0.00000000E+00  0.00000000E+00
  0.00000000E+00  0.00000000E+00  0.00000000E+00  0.00000000E+00  0.00000000E+00
  0.00000000E+00  0.00000000E+00
Nuclear GFac                               R   N=          22
  0.00000000E+00  0.00000000E+00  0.00000000E+00  0.00000000E+00  0.00000000E+00
  0.00000000E+00  2.79284600E+00  2.79284600E+00  2.79284600E+00  2.79284600E+00
  2.79284600E+00  0.00000000E+00  0.00000000E+00  0.00000000E+00  0.00000000E+00
  0.00000000E+00  0.00000000E+00  2.79284600E+00  2.79284600E+00  2.79284600E+00
  2.79284600E+00  2.79284600E+00
MicOpt                                     I   N=          22
          -1          -1          -1          -1          -1          -1
          -1          -1          -1          -1          -1          -1
          -1          -1          -1          -1          -1          -1
          -1          -1          -1          -1
Number of contracted shells                I               68
Number of primitive shells                 I              172
Pure/Cartesian d shells                    I                1
Pure/Cartesian f shells                    I                0
Highest angular momentum                   I                2
Largest degree of contraction              I                6
Shell types                                I   N=          68
           0          -1          -1           2           0          -1
          -1           2           0          -1          -1           2
           0          -1          -1           2           0          -1
          -1           2           0          -1          -1           2
           0           0           0           0           0           0
           0           0           0           0           0          -1
          -1           2           0          -1          -1           2
           0          -1          -1           2           0          -1
          -1           2           0          -1          -1           2
           0          -1          -1           2           0           0
           0           0           0           0           0           0
           0           0
Number of primitives per shell             I   N=          68
           6           3           1           1           6           3
           1           1           6           3           1           1
           6           3           1           1           6           3
           1           1           6           3           1           1
           3           1           3           1           3           1
           3           1           3           1           6           3
           1           1           6           3           1           1
           6           3           1           1           6           3
           1           1           6           3           1           1
           6           3           1           1           3           1
           3           1           3           1           3           1
           3           1
Shell to atom map                          I   N=          68
           1           1           1           1           2           2
           2           2           3           3           3           3
           4           4           4           4           5           5
           5           5           6           6           6           6
           7           7           8           8           9           9
          10          10          11          11          12          12
          12          12          13          13          13          13
          14          14          14          14          15          15
          15          15          16          16          16          16
          17          17          17          17          18          18
          19          19          20          20          21          21
          22          22
Primitive exponents                        R   N=         172
  3.04752488E+03  4.57369518E+02  1.03948685E+02  2.92101553E+01  9.28666296E+00
  3.16392696E+00  7.86827235E+00  1.88128854E+00  5.44249258E-01  1.68714478E-01
  8.00000000E-01  3.04752488E+03  4.57369518E+02  1.03948685E+02  2.92101553E+01
  9.28666296E+00  3.16392696E+00  7.86827235E+00  1.88128854E+00  5.44249258E-01
  1.68714478E-01  8.00000000E-01  3.04752488E+03  4.57369518E+02  1.03948685E+02
  2.92101553E+01  9.28666296E+00  3.16392696E+00  7.86827235E+00  1.88128854E+00
  5.44249258E-01  1.68714478E-01  8.00000000E-01  3.04752488E+03  4.57369518E+02
  1.03948685E+02  2.92101553E+01  9.28666296E+00  3.16392696E+00  7.86827235E+00
  1.88128854E+00  5.44249258E-01  1.68714478E-01  8.00000000E-01  3.04752488E+03
  4.57369518E+02  1.03948685E+02  2.92101553E+01  9.28666296E+00  3.16392696E+00
  7.86827235E+00  1.88128854E+00  5.44249258E-01  1.68714478E-01  8.00000000E-01
  3.04752488E+03  4.57369518E+02  1.03948685E+02  2.92101553E+01  9.28666296E+00
  3.16392696E+00  7.86827235E+00  1.88128854E+00  5.44249258E-01  1.68714478E-01
  8.00000000E-01  1.87311370E+01  2.82539436E+00  6.40121692E-01  1.61277759E-01
  1.87311370E+01  2.82539436E+00  6.40121692E-01  1.61277759E-01  1.87311370E+01
  2.82539436E+00  6.40121692E-01  1.61277759E-01  1.87311370E+01  2.82539436E+00
  6.40121692E-01  1.61277759E-01  1.87311370E+01  2.82539436E+00  6.40121692E-01
  1.61277759E-01  3.04752488E+03  4.57369518E+02  1.03948685E+02  2.92101553E+01
  9.28666296E+00  3.16392696E+00  7.86827235E+00  1.88128854E+00  5.44249258E-01
  1.68714478E-01  8.00000000E-01  3.04752488E+03  4.57369518E+02  1.03948685E+02
  2.92101553E+01  9.28666296E+00  3.16392696E+00  7.86827235E+00  1.88128854E+00
  5.44249258E-01  1.68714478E-01  8.00000000E-01  3.04752488E+03  4.57369518E+02
  1.03948685E+02  2.92101553E+01  9.28666296E+00  3.16392696E+00  7.86827235E+00
  1.88128854E+00  5.44249258E-01  1.68714478E-01  8.00000000E-01  3.04752488E+03
  4.57369518E+02  1.03948685E+02  2.92101553E+01  9.28666296E+00  3.16392696E+00
  7.86827235E+00  1.88128854E+00  5.44249258E-01  1.68714478E-01  8.00000000E-01
  3.04752488E+03  4.57369518E+02  1.03948685E+02  2.92101553E+01  9.28666296E+00
  3.16392696E+00  7.86827235E+00  1.88128854E+00  5.44249258E-01  1.68714478E-01
  8.00000000E-01  3.04752488E+03  4.57369518E+02  1.03948685E+02  2.92101553E+01
  9.28666296E+00  3.16392696E+00  7.86827235E+00  1.88128854E+00  5.44249258E-01
  1.68714478E-01  8.00000000E-01  1.87311370E+01  2.82539436E+00  6.40121692E-01
  1.61277759E-01  1.87311370E+01  2.82539436E+00  6.40121692E-01  1.61277759E-01
  1.87311370E+01  2.82539436E+00  6.40121692E-01  1.61277759E-01  1.87311370E+01
  2.82539436E+00  6.40121692E-01  1.61277759E-01  1.87311370E+01  2.82539436E+00
  6.40121692E-01  1.61277759E-01
Contraction coefficients                   R   N=         172
  1.83473713E-03  1.40373228E-02  6.88426223E-02  2.32184443E-01  4.67941348E-01
  3.62311985E-01 -1.19332420E-01 -1.60854152E-01  1.14345644E+00  1.00000000E+00
  1.00000000E+00  1.83473713E-03  1.40373228E-02  6.88426223E-02  2.32184443E-01
  4.67941348E-01  3.62311985E-01 -1.19332420E-01 -1.60854152E-01  1.14345644E+00
  1.00000000E+00  1.00000000E+00  1.83473713E-03  1.40373228E-02  6.88426223E-02
  2.32184443E-01  4.67941348E-01  3.62311985E-01 -1.19332420E-01 -1.60854152E-01
  1.14345644E+00  1.00000000E+00  1.00000000E+00  1.83473713E-03  1.40373228E-02
  6.88426223E-02  2.32184443E-01  4.67941348E-01  3.62311985E-01 -1.19332420E-01
 -1.60854152E-01  1.14345644E+00  1.00000000E+00  1.00000000E+00  1.83473713E-03
  1.40373228E-02  6.88426223E-02  2.32184443E-01  4.67941348E-01  3.62311985E-01
 -1.19332420E-01 -1.60854152E-01  1.14345644E+00  1.00000000E+00  1.00000000E+00
  1.83473713E-03  1.40373228E-02  6.88426223E-02  2.32184443E-01  4.67941348E-01
  3.62311985E-01 -1.19332420E-01 -1.60854152E-01  1.14345644E+00  1.00000000E+00
  1.00000000E+00  3.34946043E-02  2.34726953E-01  8.13757326E-01  1.00000000E+00
  3.34946043E-02  2.34726953E-01  8.13757326E-01  1.00000000E+00  3.34946043E-02
  2.34726953E-01  8.13757326E-01  1.00000000E+00  3.34946043E-02  2.34726953E-01
  8.13757326E-01  1.00000000E+00  3.34946043E-02  2.34726953E-01  8.13757326E-01
  1.00000000E+00  1.83473713E-03  1.40373228E-02  6.88426223E-02  2.32184443E-01
  4.67941348E-01  3.62311985E-01 -1.19332420E-01 -1.60854152E-01  1.14345644E+00
  1.00000000E+00  1.00000000E+00  1.83473713E-03  1.40373228E-02  6.88426223E-02
  2.32184443E-01  4.67941348E-01  3.62311985E-01 -1.19332420E-01 -1.60854152E-01
  1.14345644E+00  1.00000000E+00  1.00000000E+00  1.83473713E-03  1.40373228E-02
  6.88426223E-02  2.32184443E-01  4.67941348E-01  3.62311985E-01 -1.19332420E-01
 -1.60854152E-01  1.14345644E+00  1.00000000E+00  1.00000000E+00  1.83473713E-03
  1.40373228E-02  6.88426223E-02  2.32184443E-01  4.67941348E-01  3.62311985E-01
 -1.19332420E-01 -1.60854152E-01  1.14345644E+00  1.00000000E+00  1.00000000E+00
  1.83473713E-03  1.40373228E-02  6.88426223E-02  2.32184443E-01  4.67941348E-01
  3.62311985E-01 -1.19332420E-01 -1.60854152E-01  1.14345644E+00  1.00000000E+00
  1.00000000E+00  1.83473713E-03  1.40373228E-02  6.88426223E-02  2.32184443E-01
  4.67941348E-01  3.62311985E-01 -1.19332420E-01 -1.60854152E-01  1.14345644E+00
  1.00000000E+00  1.00000000E+00  3.34946043E-02  2.34726953E-01  8.13757326E-01
  1.00000000E+00  3.34946043E-02  2.34726953E-01  8.13757326E-01  1.00000000E+00
  3.34946043E-02  2.34726953E-01  8.13757326E-01  1.00000000E+00  3.34946043E-02
  2.34726953E-01  8.13757326E-01  1.00000000E+00  3.34946043E-02  2.34726953E-01
  8.13757326E-01  1.00000000E+00
P(S=P) Contraction coefficients            R   N=         172
  0.00000000E+00  0.00000000E+00  0.00000000E+00  0.00000000E+00  0.00000000E+00
  0.00000000E+00  6.89990666E-02  3.16423961E-01  7.44308291E-01  1.00000000E+00
  0.00000000E+00  0.00000000E+00  0.00000000E+00  0.00000000E+00  0.00000000E+00
  0.00000000E+00  0.00000000E+00  6.89990666E-02  3.16423961E-01  7.44308291E-01
  1.00000000E+00  0.00000000E+00  0.00000000E+00  0.00000000E+00  0.00000000E+00
  0.00000000E+00  0.00000000E+00  0.00000000E+00  6.89990666E-02  3.16423961E-01
  7.44308291E-01  1.00000000E+00  0.00000000E+00  0.00000000E+00  0.00000000E+00
  0.00000000E+00  0.00000000E+00  0.00000000E+00  0.00000000E+00  6.89990666E-02
  3.16423961E-01  7.44308291E-01  1.00000000E+00  0.00000000E+00  0.00000000E+00
  0.00000000E+00  0.00000000E+00  0.00000000E+00  0.00000000E+00  0.00000000E+00
  6.89990666E-02  3.16423961E-01  7.44308291E-01  1.00000000E+00  0.00000000E+00
  0.00000000E+00  0.00000000E+00  0.00000000E+00  0.00000000E+00  0.00000000E+00
  0.00000000E+00  6.89990666E-02  3.16423961E-01  7.44308291E-01  1.00000000E+00
  0.00000000E+00  0.00000000E+00  0.00000000E+00  0.00000000E+00  0.00000000E+00
  0.00000000E+00  0.00000000E+00  0.00000000E+00  0.00000000E+00  0.00000000E+00
  0.00000000E+00  0.00000000E+00  0.00000000E+00  0.00000000E+00  0.00000000E+00
  0.00000000E+00  0.00000000E+00  0.00000000E+00  0.00000000E+00  0.00000000E+00
  0.00000000E+00  0.00000000E+00  0.00000000E+00  0.00000000E+00  0.00000000E+00
  0.00000000E+00  0.00000000E+00  6.89990666E-02  3.16423961E-01  7.44308291E-01
  1.00000000E+00  0.00000000E+00  0.00000000E+00  0.00000000E+00  0.00000000E+00
  0.00000000E+00  0.00000000E+00  0.00000000E+00  6.89990666E-02  3.16423961E-01
  7.44308291E-01  1.00000000E+00  0.00000000E+00  0.00000000E+00  0.00000000E+00
  0.00000000E+00  0.00000000E+00  0.00000000E+00  0.00000000E+00  6.89990666E-02
  3.16423961E-01  7.44308291E-01  1.00000000E+00  0.00000000E+00  0.00000000E+00
  0.00000000E+00  0.00000000E+00  0.00000000E+00  0.00000000E+00  0.00000000E+00
  6.89990666E-02  3.16423961E-01  7.44308291E-01  1.00000000E+00  0.00000000E+00
  0.00000000E+00  0.00000000E+00  0.00000000E+00  0.00000000E+00  0.00000000E+00
  0.00000000E+00  6.89990666E-02  3.16423961E-01  7.44308291E-01  1.00000000E+00
  0.00000000E+00  0.00000000E+00  0.00000000E+00  0.00000000E+00  0.00000000E+00
  0.00000000E+00  0.00000000E+00  6.89990666E-02  3.16423961E-01  7.44308291E-01
  1.00000000E+00  0.00000000E+00  0.00000000E+00  0.00000000E+00  0.00000000E+00
  0.00000000E+00  0.00000000E+00  0.00000000E+00  0.00000000E+00  0.00000000E+00
  0.00000000E+00  0.00000000E+00  0.00000000E+00  0.00000000E+00  0.00000000E+00
  0.00000000E+00  0.00000000E+00  0.00000000E+00  0.00000000E+00  0.00000000E+00
  0.00000000E+00  0.00000000E+00
Coordinates of each shell                  R   N=         204
  2.08557866E+00 -5.37458771E+00 -8.73089143E-01  2.08557866E+00 -5.37458771E+00
 -8.73089143E-01  2.08557866E+00 -5.37458771E+00 -8.73089143E-01  2.08557866E+00
 -5.37458771E+00 -8.73089143E-01  2.08440564E+00 -2.75793354E+00 -8.73212573E-01
  2.08440564E+00 -2.75793354E+00 -8.73212573E-01  2.08440564E+00 -2.75793354E+00
 -8.73212573E-01  2.08440564E+00 -2.75793354E+00 -8.73212573E-01  3.57976452E-16
 -1.40896303E+00  2.85258789E-08  3.57976452E-16 -1.40896303E+00  2.85258789E-08
  3.57976452E-16 -1.40896303E+00  2.85258789E-08  3.57976452E-16 -1.40896303E+00
  2.85258789E-08 -2.08440563E+00 -2.75793357E+00  8.73212601E-01 -2.08440563E+00
 -2.75793357E+00  8.73212601E-01 -2.08440563E+00 -2.75793357E+00  8.73212601E-01
 -2.08440563E+00 -2.75793357E+00  8.73212601E-01 -2.08557865E+00 -5.37458773E+00
  8.73089120E-01 -2.08557865E+00 -5.37458773E+00  8.73089120E-01 -2.08557865E+00
 -5.37458773E+00  8.73089120E-01 -2.08557865E+00 -5.37458773E+00  8.73089120E-01
  7.27065977E-16 -6.69398972E+00 -2.39734891E-08  7.27065977E-16 -6.69398972E+00
 -2.39734891E-08  7.27065977E-16 -6.69398972E+00 -2.39734891E-08  7.27065977E-16
 -6.69398972E+00 -2.39734891E-08  3.70969300E+00 -6.38014223E+00 -1.56762750E+00
  3.70969300E+00 -6.38014223E+00 -1.56762750E+00  3.69849271E+00 -1.75407470E+00
 -1.59118301E+00  3.69849271E+00 -1.75407470E+00 -1.59118301E+00 -3.69849271E+00
 -1.75407474E+00  1.59118304E+00 -3.69849271E+00 -1.75407474E+00  1.59118304E+00
 -3.70969298E+00 -6.38014227E+00  1.56762745E+00 -3.70969298E+00 -6.38014227E+00
  1.56762745E+00  1.06967386E-15 -8.72610673E+00 -4.46728749E-08  1.06967386E-15
 -8.72610673E+00 -4.46728749E-08  2.08440563E+00  2.75793357E+00  8.73212601E-01
  2.08440563E+00  2.75793357E+00  8.73212601E-01  2.08440563E+00  2.75793357E+00
  8.73212601E-01  2.08440563E+00  2.75793357E+00  8.73212601E-01  2.08557865E+00
  5.37458773E+00  8.73089120E-01  2.08557865E+00  5.37458773E+00  8.73089120E-01
  2.08557865E+00  5.37458773E+00  8.73089120E-01  2.08557865E+00  5.37458773E+00
  8.73089120E-01 -2.22630074E-15  6.69398972E+00 -2.39734891E-08 -2.22630074E-15
  6.69398972E+00 -2.39734891E-08 -2.22630074E-15  6.69398972E+00 -2.39734891E-08
 -2.22630074E-15  6.69398972E+00 -2.39734891E-08 -2.08557866E+00  5.37458771E+00
 -8.73089143E-01 -2.08557866E+00  5.37458771E+00 -8.73089143E-01 -2.08557866E+00
  5.37458771E+00 -8.73089143E-01 -2.08557866E+00  5.37458771E+00 -8.73089143E-01
 -2.08440564E+00  2.75793354E+00 -8.73212573E-01 -2.08440564E+00  2.75793354E+00
 -8.73212573E-01 -2.08440564E+00  2.75793354E+00 -8.73212573E-01 -2.08440564E+00
  2.75793354E+00 -8.73212573E-01 -6.59845442E-16  1.40896303E+00  2.85258789E-08
 -6.59845442E-16  1.40896303E+00  2.85258789E-08 -6.59845442E-16  1.40896303E+00
  2.85258789E-08 -6.59845442E-16  1.40896303E+00  2.85258789E-08  3.69849271E+00
  1.75407474E+00  1.59118304E+00  3.69849271E+00  1.75407474E+00  1.59118304E+00
  3.70969298E+00  6.38014227E+00  1.56762745E+00  3.70969298E+00  6.38014227E+00
  1.56762745E+00 -3.02340618E-15  8.72610673E+00 -4.46728749E-08 -3.02340618E-15
  8.72610673E+00 -4.46728749E-08 -3.70969300E+00  6.38014223E+00 -1.56762750E+00
 -3.70969300E+00  6.38014223E+00 -1.56762750E+00 -3.69849271E+00  1.75407470E+00
 -1.59118301E+00 -3.69849271E+00  1.75407470E+00 -1.59118301E+00
Constraint Structure                       R   N=          66
  2.08557866E+00 -5.37458771E+00 -8.73089143E-01  2.08440564E+00 -2.75793354E+00
 -8.73212573E-01  3.57976452E-16 -1.40896303E+00  2.85258789E-08 -2.08440563E+00
 -2.75793357E+00  8.73212601E-01 -2.08557865E+00 -5.37458773E+00  8.73089120E-01
  7.27065977E-16 -6.69398972E+00 -2.39734891E-08  3.70969300E+00 -6.38014223E+00
 -1.56762750E+00  3.69849271E+00 -1.75407470E+00 -1.59118301E+00 -3.69849271E+00
 -1.75407474E+00  1.59118304E+00 -3.70969298E+00 -6.38014227E+00  1.56762745E+00
  1.06967386E-15 -8.72610673E+00 -4.46728749E-08  2.08440563E+00  2.75793357E+00
  8.73212601E-01  2.08557865E+00  5.37458773E+00  8.73089120E-01 -2.22630074E-15
  6.69398972E+00 -2.39734891E-08 -2.08557866E+00  5.37458771E+00 -8.73089143E-01
 -2.08440564E+00  2.75793354E+00 -8.73212573E-01 -6.59845442E-16  1.40896303E+00
  2.85258789E-08  3.69849271E+00  1.75407474E+00  1.59118304E+00  3.70969298E+00
  6.38014227E+00  1.56762745E+00 -3.02340618E-15  8.72610673E+00 -4.46728749E-08
 -3.70969300E+00  6.38014223E+00 -1.56762750E+00 -3.69849271E+00  1.75407470E+00
 -1.59118301E+00
Num ILSW                                   I              100
ILSW                                       I   N=         100
           0           1           0           0           2           0
           0           0           0           0           0          -1
           0           0           0           0           2           0
           0           0           1           0           1           0
           1           0           0           0           0           0
           0           0      100000           0          -1           0
           0           0           0           0           0           0
           0           0           0           1           0           0
           0           0           1           0           0           0
           0           0           4          41           0           0
           0           0           0           0           0           0
           0           0           0           0           0           0
           0           0           0           0           0           0
           0           0           0           0           0           0
           0           0           0           0           0           0
           0           0           0           0           0           0
           0           0           0           0
Num RLSW                                   I               41
RLSW                                       R   N=          41
  1.00000000E+00  1.00000000E+00  1.00000000E+00  1.00000000E+00  1.00000000E+00
  0.00000000E+00  0.00000000E+00  1.00000000E+00  0.00000000E+00  0.00000000E+00
  0.00000000E+00  0.00000000E+00  1.00000000E+00  0.00000000E+00  0.00000000E+00
  0.00000000E+00  0.00000000E+00  1.00000000E+00  0.00000000E+00  0.00000000E+00
  0.00000000E+00  0.00000000E+00  1.00000000E+00  0.00000000E+00  0.00000000E+00
  0.00000000E+00  0.00000000E+00  1.00000000E+00  0.00000000E+00  0.00000000E+00
  0.00000000E+00  0.00000000E+00  1.00000000E+00  0.00000000E+00  0.00000000E+00
  0.00000000E+00  0.00000000E+00  0.00000000E+00  1.00000000E+00  1.00000000E+00
  0.00000000E+00
MxBond                                     I                3
NBond                                      I   N=          22
           3           3           3           3           3           3
           1           1           1           1           1           3
           3           3           3           3           3           1
           1           1           1           1
IBond                                      I   N=          66
           2           6           7           1           3           8
           2           4          17           3           5           9
           4           6          10           1           5          11
           1           0           0           2           0           0
           4           0           0           5           0           0
           6           0           0          13          17          18
          12          14          19          13          15          20
          14          16          21          15          17          22
           3          12          16          12           0           0
          13           0           0          14           0           0
          15           0           0          16           0           0
RBond                                      R   N=          66
  1.50000000E+00  1.50000000E+00  1.00000000E+00  1.50000000E+00  1.50000000E+00
  1.00000000E+00  1.50000000E+00  1.50000000E+00  1.00000000E+00  1.50000000E+00
  1.50000000E+00  1.00000000E+00  1.50000000E+00  1.50000000E+00  1.00000000E+00
  1.50000000E+00  1.50000000E+00  1.00000000E+00  1.00000000E+00  0.00000000E+00
  0.00000000E+00  1.00000000E+00  0.00000000E+00  0.00000000E+00  1.00000000E+00
  0.00000000E+00  0.00000000E+00  1.00000000E+00  0.00000000E+00  0.00000000E+00
  1.00000000E+00  0.00000000E+00  0.00000000E+00  1.50000000E+00  1.50000000E+00
  1.00000000E+00  1.50000000E+00  1.50000000E+00  1.00000000E+00  1.50000000E+00
  1.50000000E+00  1.00000000E+00  1.50000000E+00  1.50000000E+00  1.00000000E+00
  1.50000000E+00  1.50000000E+00  1.00000000E+00  1.00000000E+00  1.50000000E+00
  1.50000000E+00  1.00000000E+00  0.00000000E+00  0.00000000E+00  1.00000000E+00
  0.00000000E+00  0.00000000E+00  1.00000000E+00  0.00000000E+00  0.00000000E+00
  1.00000000E+00  0.00000000E+00  0.00000000E+00  1.00000000E+00  0.00000000E+00
  0.00000000E+00
Virial Ratio                               R      2.000858036847339E+00
SCF Energy                                 R     -4.602539455955148E+02
Total Energy                               R     -4.602539455955148E+02
RMS Force                                  R      1.354246087277648E-05
RMS Density                                R      1.452316753095706E-09
External E-field                           R   N=          35
  0.00000000E+00  0.00000000E+00  0.00000000E+00  0.00000000E+00  0.00000000E+00
  0.00000000E+00  0.00000000E+00  0.00000000E+00  0.00000000E+00  0.00000000E+00
  0.00000000E+00  0.00000000E+00  0.00000000E+00  0.00000000E+00  0.00000000E+00
  0.00000000E+00  0.00000000E+00  0.00000000E+00  0.00000000E+00  0.00000000E+00
  0.00000000E+00  0.00000000E+00  0.00000000E+00  0.00000000E+00  0.00000000E+00
  0.00000000E+00  0.00000000E+00  0.00000000E+00  0.00000000E+00  0.00000000E+00
  0.00000000E+00  0.00000000E+00  0.00000000E+00  0.00000000E+00  0.00000000E+00
IOpCl                                      I                0
IROHF                                      I                0
Alpha Orbital Energies                     R   N=         200
 -1.12404071E+01 -1.12397101E+01 -1.12306266E+01 -1.12306265E+01 -1.12302731E+01
 -1.12302726E+01 -1.12286784E+01 -1.12286775E+01 -1.12283905E+01 -1.12283866E+01
 -1.12281198E+01 -1.12281180E+01 -1.16797829E+00 -1.14107898E+00 -1.05042489E+00
 -1.01732385E+00 -1.00968549E+00 -9.81534487E-01 -8.47693757E-01 -8.38203534E-01
 -8.09897063E-01 -7.88200003E-01 -7.17287708E-01 -6.81667902E-01 -6.49521380E-01
 -6.34927505E-01 -6.14634630E-01 -6.05805509E-01 -5.87837939E-01 -5.81830546E-01
 -5.80878636E-01 -5.18522211E-01 -5.11708312E-01 -4.99312587E-01 -4.88226795E-01
 -4.80838404E-01 -4.77346612E-01 -3.60047705E-01 -3.33745229E-01 -3.32020387E-01
 -2.99802075E-01  1.16736725E-01  1.44759636E-01  1.46498128E-01  1.82640727E-01
  2.44185463E-01  2.45059804E-01  2.82225136E-01  3.00632621E-01  3.02728599E-01